V -t * -v 1.0a5 -a 0
A -t * -n 1 -p 0 -o 0x7fffffff -c 30 -a 1
A -t * -h 1 -m 1073741823 -s 0
c -t * -i 4 -n Yellow
c -t * -i 5 -n Brown
c -t * -i 1 -n Blue
c -t * -i 2 -n Red
c -t * -i 3 -n Green
n -t * -a 8 -s 8 -S UP -v circle -c black -i black
n -t * -a 4 -s 4 -S UP -v circle -c black -i black
n -t * -a 0 -s 0 -S UP -v circle -c black -i black
n -t * -a 10 -s 10 -S UP -v circle -c black -i black
n -t * -a 9 -s 9 -S UP -v circle -c black -i black
n -t * -a 5 -s 5 -S UP -v circle -c black -i black
n -t * -a 1 -s 1 -S UP -v circle -c black -i black
n -t * -a 6 -s 6 -S UP -v circle -c black -i black
n -t * -a 2 -s 2 -S UP -v circle -c black -i black
n -t * -a 7 -s 7 -S UP -v circle -c black -i black
n -t * -a 3 -s 3 -S UP -v circle -c black -i black
l -t * -s 1 -d 0 -S UP -r 5000000 -D 0.02 -c black -o down
l -t * -s 0 -d 2 -S UP -r 500000 -D 0.10000000000000001 -c black -o right
l -t * -s 3 -d 2 -S UP -r 5000000 -D 0.02 -c black -o down
l -t * -s 2 -d 4 -S UP -r 500000 -D 0.10000000000000001 -c black -o right
l -t * -s 5 -d 4 -S UP -r 5000000 -D 0.02 -c black -o down
l -t * -s 4 -d 6 -S UP -r 500000 -D 0.10000000000000001 -c black -o right
l -t * -s 7 -d 6 -S UP -r 5000000 -D 0.02 -c black -o down
l -t * -s 6 -d 8 -S UP -r 500000 -D 0.10000000000000001 -c black -o right
l -t * -s 9 -d 8 -S UP -r 5000000 -D 0.02 -c black -o down
l -t * -s 8 -d 10 -S UP -r 500000 -D 0.10000000000000001 -c black -o right
+ -t 0.1 -s 1 -d 0 -p tcp -e 40 -c 1 -i 0 -a 1 -x {1.0 10.0 0 ------- null}
- -t 0.1 -s 1 -d 0 -p tcp -e 40 -c 1 -i 0 -a 1 -x {1.0 10.0 0 ------- null}
h -t 0.1 -s 1 -d 0 -p tcp -e 40 -c 1 -i 0 -a 1 -x {1.0 10.0 -1 ------- null}
+ -t 0.1 -s 3 -d 2 -p tcp -e 40 -c 2 -i 1 -a 2 -x {3.0 10.1 0 ------- null}
- -t 0.1 -s 3 -d 2 -p tcp -e 40 -c 2 -i 1 -a 2 -x {3.0 10.1 0 ------- null}
h -t 0.1 -s 3 -d 2 -p tcp -e 40 -c 2 -i 1 -a 2 -x {3.0 10.1 -1 ------- null}
+ -t 0.1 -s 5 -d 4 -p tcp -e 40 -c 3 -i 2 -a 3 -x {5.0 10.2 0 ------- null}
- -t 0.1 -s 5 -d 4 -p tcp -e 40 -c 3 -i 2 -a 3 -x {5.0 10.2 0 ------- null}
h -t 0.1 -s 5 -d 4 -p tcp -e 40 -c 3 -i 2 -a 3 -x {5.0 10.2 -1 ------- null}
+ -t 0.1 -s 7 -d 6 -p tcp -e 40 -c 4 -i 3 -a 4 -x {7.0 10.3 0 ------- null}
- -t 0.1 -s 7 -d 6 -p tcp -e 40 -c 4 -i 3 -a 4 -x {7.0 10.3 0 ------- null}
h -t 0.1 -s 7 -d 6 -p tcp -e 40 -c 4 -i 3 -a 4 -x {7.0 10.3 -1 ------- null}
+ -t 0.1 -s 9 -d 8 -p tcp -e 40 -c 5 -i 4 -a 5 -x {9.0 10.4 0 ------- null}
- -t 0.1 -s 9 -d 8 -p tcp -e 40 -c 5 -i 4 -a 5 -x {9.0 10.4 0 ------- null}
h -t 0.1 -s 9 -d 8 -p tcp -e 40 -c 5 -i 4 -a 5 -x {9.0 10.4 -1 ------- null}
r -t 0.120064 -s 1 -d 0 -p tcp -e 40 -c 1 -i 0 -a 1 -x {1.0 10.0 0 ------- null}
+ -t 0.120064 -s 0 -d 2 -p tcp -e 40 -c 1 -i 0 -a 1 -x {1.0 10.0 0 ------- null}
- -t 0.120064 -s 0 -d 2 -p tcp -e 40 -c 1 -i 0 -a 1 -x {1.0 10.0 0 ------- null}
h -t 0.120064 -s 0 -d 2 -p tcp -e 40 -c 1 -i 0 -a 1 -x {1.0 10.0 -1 ------- null}
r -t 0.120064 -s 3 -d 2 -p tcp -e 40 -c 2 -i 1 -a 2 -x {3.0 10.1 0 ------- null}
+ -t 0.120064 -s 2 -d 4 -p tcp -e 40 -c 2 -i 1 -a 2 -x {3.0 10.1 0 ------- null}
- -t 0.120064 -s 2 -d 4 -p tcp -e 40 -c 2 -i 1 -a 2 -x {3.0 10.1 0 ------- null}
h -t 0.120064 -s 2 -d 4 -p tcp -e 40 -c 2 -i 1 -a 2 -x {3.0 10.1 -1 ------- null}
r -t 0.120064 -s 5 -d 4 -p tcp -e 40 -c 3 -i 2 -a 3 -x {5.0 10.2 0 ------- null}
+ -t 0.120064 -s 4 -d 6 -p tcp -e 40 -c 3 -i 2 -a 3 -x {5.0 10.2 0 ------- null}
- -t 0.120064 -s 4 -d 6 -p tcp -e 40 -c 3 -i 2 -a 3 -x {5.0 10.2 0 ------- null}
h -t 0.120064 -s 4 -d 6 -p tcp -e 40 -c 3 -i 2 -a 3 -x {5.0 10.2 -1 ------- null}
r -t 0.120064 -s 7 -d 6 -p tcp -e 40 -c 4 -i 3 -a 4 -x {7.0 10.3 0 ------- null}
+ -t 0.120064 -s 6 -d 8 -p tcp -e 40 -c 4 -i 3 -a 4 -x {7.0 10.3 0 ------- null}
- -t 0.120064 -s 6 -d 8 -p tcp -e 40 -c 4 -i 3 -a 4 -x {7.0 10.3 0 ------- null}
h -t 0.120064 -s 6 -d 8 -p tcp -e 40 -c 4 -i 3 -a 4 -x {7.0 10.3 -1 ------- null}
r -t 0.120064 -s 9 -d 8 -p tcp -e 40 -c 5 -i 4 -a 5 -x {9.0 10.4 0 ------- null}
+ -t 0.120064 -s 8 -d 10 -p tcp -e 40 -c 5 -i 4 -a 5 -x {9.0 10.4 0 ------- null}
- -t 0.120064 -s 8 -d 10 -p tcp -e 40 -c 5 -i 4 -a 5 -x {9.0 10.4 0 ------- null}
h -t 0.120064 -s 8 -d 10 -p tcp -e 40 -c 5 -i 4 -a 5 -x {9.0 10.4 -1 ------- null}
r -t 0.220704 -s 0 -d 2 -p tcp -e 40 -c 1 -i 0 -a 1 -x {1.0 10.0 0 ------- null}
+ -t 0.220704 -s 2 -d 4 -p tcp -e 40 -c 1 -i 0 -a 1 -x {1.0 10.0 0 ------- null}
- -t 0.220704 -s 2 -d 4 -p tcp -e 40 -c 1 -i 0 -a 1 -x {1.0 10.0 0 ------- null}
h -t 0.220704 -s 2 -d 4 -p tcp -e 40 -c 1 -i 0 -a 1 -x {1.0 10.0 -1 ------- null}
r -t 0.220704 -s 2 -d 4 -p tcp -e 40 -c 2 -i 1 -a 2 -x {3.0 10.1 0 ------- null}
+ -t 0.220704 -s 4 -d 6 -p tcp -e 40 -c 2 -i 1 -a 2 -x {3.0 10.1 0 ------- null}
- -t 0.220704 -s 4 -d 6 -p tcp -e 40 -c 2 -i 1 -a 2 -x {3.0 10.1 0 ------- null}
h -t 0.220704 -s 4 -d 6 -p tcp -e 40 -c 2 -i 1 -a 2 -x {3.0 10.1 -1 ------- null}
r -t 0.220704 -s 4 -d 6 -p tcp -e 40 -c 3 -i 2 -a 3 -x {5.0 10.2 0 ------- null}
+ -t 0.220704 -s 6 -d 8 -p tcp -e 40 -c 3 -i 2 -a 3 -x {5.0 10.2 0 ------- null}
- -t 0.220704 -s 6 -d 8 -p tcp -e 40 -c 3 -i 2 -a 3 -x {5.0 10.2 0 ------- null}
h -t 0.220704 -s 6 -d 8 -p tcp -e 40 -c 3 -i 2 -a 3 -x {5.0 10.2 -1 ------- null}
r -t 0.220704 -s 6 -d 8 -p tcp -e 40 -c 4 -i 3 -a 4 -x {7.0 10.3 0 ------- null}
+ -t 0.220704 -s 8 -d 10 -p tcp -e 40 -c 4 -i 3 -a 4 -x {7.0 10.3 0 ------- null}
- -t 0.220704 -s 8 -d 10 -p tcp -e 40 -c 4 -i 3 -a 4 -x {7.0 10.3 0 ------- null}
h -t 0.220704 -s 8 -d 10 -p tcp -e 40 -c 4 -i 3 -a 4 -x {7.0 10.3 -1 ------- null}
r -t 0.220704 -s 8 -d 10 -p tcp -e 40 -c 5 -i 4 -a 5 -x {9.0 10.4 0 ------- null}
+ -t 0.220704 -s 10 -d 8 -p ack -e 40 -c 5 -i 5 -a 5 -x {10.4 9.0 0 ------- null}
- -t 0.220704 -s 10 -d 8 -p ack -e 40 -c 5 -i 5 -a 5 -x {10.4 9.0 0 ------- null}
h -t 0.220704 -s 10 -d 8 -p ack -e 40 -c 5 -i 5 -a 5 -x {10.4 9.0 -1 ------- null}
r -t 0.321344 -s 2 -d 4 -p tcp -e 40 -c 1 -i 0 -a 1 -x {1.0 10.0 0 ------- null}
+ -t 0.321344 -s 4 -d 6 -p tcp -e 40 -c 1 -i 0 -a 1 -x {1.0 10.0 0 ------- null}
- -t 0.321344 -s 4 -d 6 -p tcp -e 40 -c 1 -i 0 -a 1 -x {1.0 10.0 0 ------- null}
h -t 0.321344 -s 4 -d 6 -p tcp -e 40 -c 1 -i 0 -a 1 -x {1.0 10.0 -1 ------- null}
r -t 0.321344 -s 4 -d 6 -p tcp -e 40 -c 2 -i 1 -a 2 -x {3.0 10.1 0 ------- null}
+ -t 0.321344 -s 6 -d 8 -p tcp -e 40 -c 2 -i 1 -a 2 -x {3.0 10.1 0 ------- null}
- -t 0.321344 -s 6 -d 8 -p tcp -e 40 -c 2 -i 1 -a 2 -x {3.0 10.1 0 ------- null}
h -t 0.321344 -s 6 -d 8 -p tcp -e 40 -c 2 -i 1 -a 2 -x {3.0 10.1 -1 ------- null}
r -t 0.321344 -s 6 -d 8 -p tcp -e 40 -c 3 -i 2 -a 3 -x {5.0 10.2 0 ------- null}
+ -t 0.321344 -s 8 -d 10 -p tcp -e 40 -c 3 -i 2 -a 3 -x {5.0 10.2 0 ------- null}
- -t 0.321344 -s 8 -d 10 -p tcp -e 40 -c 3 -i 2 -a 3 -x {5.0 10.2 0 ------- null}
h -t 0.321344 -s 8 -d 10 -p tcp -e 40 -c 3 -i 2 -a 3 -x {5.0 10.2 -1 ------- null}
r -t 0.321344 -s 8 -d 10 -p tcp -e 40 -c 4 -i 3 -a 4 -x {7.0 10.3 0 ------- null}
+ -t 0.321344 -s 10 -d 8 -p ack -e 40 -c 4 -i 6 -a 4 -x {10.3 7.0 0 ------- null}
- -t 0.321344 -s 10 -d 8 -p ack -e 40 -c 4 -i 6 -a 4 -x {10.3 7.0 0 ------- null}
h -t 0.321344 -s 10 -d 8 -p ack -e 40 -c 4 -i 6 -a 4 -x {10.3 7.0 -1 ------- null}
r -t 0.321344 -s 10 -d 8 -p ack -e 40 -c 5 -i 5 -a 5 -x {10.4 9.0 0 ------- null}
+ -t 0.321344 -s 8 -d 9 -p ack -e 40 -c 5 -i 5 -a 5 -x {10.4 9.0 0 ------- null}
- -t 0.321344 -s 8 -d 9 -p ack -e 40 -c 5 -i 5 -a 5 -x {10.4 9.0 0 ------- null}
h -t 0.321344 -s 8 -d 9 -p ack -e 40 -c 5 -i 5 -a 5 -x {10.4 9.0 -1 ------- null}
r -t 0.341408 -s 8 -d 9 -p ack -e 40 -c 5 -i 5 -a 5 -x {10.4 9.0 0 ------- null}
+ -t 0.341408 -s 9 -d 8 -p tcp -e 1040 -c 5 -i 7 -a 5 -x {9.0 10.4 1 ------- null}
- -t 0.341408 -s 9 -d 8 -p tcp -e 1040 -c 5 -i 7 -a 5 -x {9.0 10.4 1 ------- null}
h -t 0.341408 -s 9 -d 8 -p tcp -e 1040 -c 5 -i 7 -a 5 -x {9.0 10.4 -1 ------- null}
+ -t 0.341408 -s 9 -d 8 -p tcp -e 1040 -c 5 -i 8 -a 5 -x {9.0 10.4 2 ------- null}
- -t 0.343072 -s 9 -d 8 -p tcp -e 1040 -c 5 -i 8 -a 5 -x {9.0 10.4 2 ------- null}
h -t 0.343072 -s 9 -d 8 -p tcp -e 1040 -c 5 -i 8 -a 5 -x {9.0 10.4 -1 ------- null}
r -t 0.363072 -s 9 -d 8 -p tcp -e 1040 -c 5 -i 7 -a 5 -x {9.0 10.4 1 ------- null}
+ -t 0.363072 -s 8 -d 10 -p tcp -e 1040 -c 5 -i 7 -a 5 -x {9.0 10.4 1 ------- null}
- -t 0.363072 -s 8 -d 10 -p tcp -e 1040 -c 5 -i 7 -a 5 -x {9.0 10.4 1 ------- null}
h -t 0.363072 -s 8 -d 10 -p tcp -e 1040 -c 5 -i 7 -a 5 -x {9.0 10.4 -1 ------- null}
r -t 0.364736 -s 9 -d 8 -p tcp -e 1040 -c 5 -i 8 -a 5 -x {9.0 10.4 2 ------- null}
+ -t 0.364736 -s 8 -d 10 -p tcp -e 1040 -c 5 -i 8 -a 5 -x {9.0 10.4 2 ------- null}
- -t 0.379712 -s 8 -d 10 -p tcp -e 1040 -c 5 -i 8 -a 5 -x {9.0 10.4 2 ------- null}
h -t 0.379712 -s 8 -d 10 -p tcp -e 1040 -c 5 -i 8 -a 5 -x {9.0 10.4 -1 ------- null}
r -t 0.421984 -s 4 -d 6 -p tcp -e 40 -c 1 -i 0 -a 1 -x {1.0 10.0 0 ------- null}
+ -t 0.421984 -s 6 -d 8 -p tcp -e 40 -c 1 -i 0 -a 1 -x {1.0 10.0 0 ------- null}
- -t 0.421984 -s 6 -d 8 -p tcp -e 40 -c 1 -i 0 -a 1 -x {1.0 10.0 0 ------- null}
h -t 0.421984 -s 6 -d 8 -p tcp -e 40 -c 1 -i 0 -a 1 -x {1.0 10.0 -1 ------- null}
r -t 0.421984 -s 6 -d 8 -p tcp -e 40 -c 2 -i 1 -a 2 -x {3.0 10.1 0 ------- null}
+ -t 0.421984 -s 8 -d 10 -p tcp -e 40 -c 2 -i 1 -a 2 -x {3.0 10.1 0 ------- null}
- -t 0.421984 -s 8 -d 10 -p tcp -e 40 -c 2 -i 1 -a 2 -x {3.0 10.1 0 ------- null}
h -t 0.421984 -s 8 -d 10 -p tcp -e 40 -c 2 -i 1 -a 2 -x {3.0 10.1 -1 ------- null}
r -t 0.421984 -s 8 -d 10 -p tcp -e 40 -c 3 -i 2 -a 3 -x {5.0 10.2 0 ------- null}
+ -t 0.421984 -s 10 -d 8 -p ack -e 40 -c 3 -i 9 -a 3 -x {10.2 5.0 0 ------- null}
- -t 0.421984 -s 10 -d 8 -p ack -e 40 -c 3 -i 9 -a 3 -x {10.2 5.0 0 ------- null}
h -t 0.421984 -s 10 -d 8 -p ack -e 40 -c 3 -i 9 -a 3 -x {10.2 5.0 -1 ------- null}
r -t 0.421984 -s 10 -d 8 -p ack -e 40 -c 4 -i 6 -a 4 -x {10.3 7.0 0 ------- null}
+ -t 0.421984 -s 8 -d 6 -p ack -e 40 -c 4 -i 6 -a 4 -x {10.3 7.0 0 ------- null}
- -t 0.421984 -s 8 -d 6 -p ack -e 40 -c 4 -i 6 -a 4 -x {10.3 7.0 0 ------- null}
h -t 0.421984 -s 8 -d 6 -p ack -e 40 -c 4 -i 6 -a 4 -x {10.3 7.0 -1 ------- null}
r -t 0.479712 -s 8 -d 10 -p tcp -e 1040 -c 5 -i 7 -a 5 -x {9.0 10.4 1 ------- null}
+ -t 0.479712 -s 10 -d 8 -p ack -e 40 -c 5 -i 10 -a 5 -x {10.4 9.0 1 ------- null}
- -t 0.479712 -s 10 -d 8 -p ack -e 40 -c 5 -i 10 -a 5 -x {10.4 9.0 1 ------- null}
h -t 0.479712 -s 10 -d 8 -p ack -e 40 -c 5 -i 10 -a 5 -x {10.4 9.0 -1 ------- null}
r -t 0.496352 -s 8 -d 10 -p tcp -e 1040 -c 5 -i 8 -a 5 -x {9.0 10.4 2 ------- null}
+ -t 0.496352 -s 10 -d 8 -p ack -e 40 -c 5 -i 11 -a 5 -x {10.4 9.0 2 ------- null}
- -t 0.496352 -s 10 -d 8 -p ack -e 40 -c 5 -i 11 -a 5 -x {10.4 9.0 2 ------- null}
h -t 0.496352 -s 10 -d 8 -p ack -e 40 -c 5 -i 11 -a 5 -x {10.4 9.0 -1 ------- null}
r -t 0.522624 -s 6 -d 8 -p tcp -e 40 -c 1 -i 0 -a 1 -x {1.0 10.0 0 ------- null}
+ -t 0.522624 -s 8 -d 10 -p tcp -e 40 -c 1 -i 0 -a 1 -x {1.0 10.0 0 ------- null}
- -t 0.522624 -s 8 -d 10 -p tcp -e 40 -c 1 -i 0 -a 1 -x {1.0 10.0 0 ------- null}
h -t 0.522624 -s 8 -d 10 -p tcp -e 40 -c 1 -i 0 -a 1 -x {1.0 10.0 -1 ------- null}
r -t 0.522624 -s 8 -d 10 -p tcp -e 40 -c 2 -i 1 -a 2 -x {3.0 10.1 0 ------- null}
+ -t 0.522624 -s 10 -d 8 -p ack -e 40 -c 2 -i 12 -a 2 -x {10.1 3.0 0 ------- null}
- -t 0.522624 -s 10 -d 8 -p ack -e 40 -c 2 -i 12 -a 2 -x {10.1 3.0 0 ------- null}
h -t 0.522624 -s 10 -d 8 -p ack -e 40 -c 2 -i 12 -a 2 -x {10.1 3.0 -1 ------- null}
r -t 0.522624 -s 10 -d 8 -p ack -e 40 -c 3 -i 9 -a 3 -x {10.2 5.0 0 ------- null}
+ -t 0.522624 -s 8 -d 6 -p ack -e 40 -c 3 -i 9 -a 3 -x {10.2 5.0 0 ------- null}
- -t 0.522624 -s 8 -d 6 -p ack -e 40 -c 3 -i 9 -a 3 -x {10.2 5.0 0 ------- null}
h -t 0.522624 -s 8 -d 6 -p ack -e 40 -c 3 -i 9 -a 3 -x {10.2 5.0 -1 ------- null}
r -t 0.522624 -s 8 -d 6 -p ack -e 40 -c 4 -i 6 -a 4 -x {10.3 7.0 0 ------- null}
+ -t 0.522624 -s 6 -d 7 -p ack -e 40 -c 4 -i 6 -a 4 -x {10.3 7.0 0 ------- null}
- -t 0.522624 -s 6 -d 7 -p ack -e 40 -c 4 -i 6 -a 4 -x {10.3 7.0 0 ------- null}
h -t 0.522624 -s 6 -d 7 -p ack -e 40 -c 4 -i 6 -a 4 -x {10.3 7.0 -1 ------- null}
r -t 0.542688 -s 6 -d 7 -p ack -e 40 -c 4 -i 6 -a 4 -x {10.3 7.0 0 ------- null}
+ -t 0.542688 -s 7 -d 6 -p tcp -e 1040 -c 4 -i 13 -a 4 -x {7.0 10.3 1 ------- null}
- -t 0.542688 -s 7 -d 6 -p tcp -e 1040 -c 4 -i 13 -a 4 -x {7.0 10.3 1 ------- null}
h -t 0.542688 -s 7 -d 6 -p tcp -e 1040 -c 4 -i 13 -a 4 -x {7.0 10.3 -1 ------- null}
+ -t 0.542688 -s 7 -d 6 -p tcp -e 1040 -c 4 -i 14 -a 4 -x {7.0 10.3 2 ------- null}
- -t 0.544352 -s 7 -d 6 -p tcp -e 1040 -c 4 -i 14 -a 4 -x {7.0 10.3 2 ------- null}
h -t 0.544352 -s 7 -d 6 -p tcp -e 1040 -c 4 -i 14 -a 4 -x {7.0 10.3 -1 ------- null}
r -t 0.564352 -s 7 -d 6 -p tcp -e 1040 -c 4 -i 13 -a 4 -x {7.0 10.3 1 ------- null}
+ -t 0.564352 -s 6 -d 8 -p tcp -e 1040 -c 4 -i 13 -a 4 -x {7.0 10.3 1 ------- null}
- -t 0.564352 -s 6 -d 8 -p tcp -e 1040 -c 4 -i 13 -a 4 -x {7.0 10.3 1 ------- null}
h -t 0.564352 -s 6 -d 8 -p tcp -e 1040 -c 4 -i 13 -a 4 -x {7.0 10.3 -1 ------- null}
r -t 0.566016 -s 7 -d 6 -p tcp -e 1040 -c 4 -i 14 -a 4 -x {7.0 10.3 2 ------- null}
+ -t 0.566016 -s 6 -d 8 -p tcp -e 1040 -c 4 -i 14 -a 4 -x {7.0 10.3 2 ------- null}
r -t 0.580352 -s 10 -d 8 -p ack -e 40 -c 5 -i 10 -a 5 -x {10.4 9.0 1 ------- null}
+ -t 0.580352 -s 8 -d 9 -p ack -e 40 -c 5 -i 10 -a 5 -x {10.4 9.0 1 ------- null}
- -t 0.580352 -s 8 -d 9 -p ack -e 40 -c 5 -i 10 -a 5 -x {10.4 9.0 1 ------- null}
h -t 0.580352 -s 8 -d 9 -p ack -e 40 -c 5 -i 10 -a 5 -x {10.4 9.0 -1 ------- null}
- -t 0.580992 -s 6 -d 8 -p tcp -e 1040 -c 4 -i 14 -a 4 -x {7.0 10.3 2 ------- null}
h -t 0.580992 -s 6 -d 8 -p tcp -e 1040 -c 4 -i 14 -a 4 -x {7.0 10.3 -1 ------- null}
r -t 0.596992 -s 10 -d 8 -p ack -e 40 -c 5 -i 11 -a 5 -x {10.4 9.0 2 ------- null}
+ -t 0.596992 -s 8 -d 9 -p ack -e 40 -c 5 -i 11 -a 5 -x {10.4 9.0 2 ------- null}
- -t 0.596992 -s 8 -d 9 -p ack -e 40 -c 5 -i 11 -a 5 -x {10.4 9.0 2 ------- null}
h -t 0.596992 -s 8 -d 9 -p ack -e 40 -c 5 -i 11 -a 5 -x {10.4 9.0 -1 ------- null}
r -t 0.600416 -s 8 -d 9 -p ack -e 40 -c 5 -i 10 -a 5 -x {10.4 9.0 1 ------- null}
+ -t 0.600416 -s 9 -d 8 -p tcp -e 1040 -c 5 -i 15 -a 5 -x {9.0 10.4 3 ------- null}
- -t 0.600416 -s 9 -d 8 -p tcp -e 1040 -c 5 -i 15 -a 5 -x {9.0 10.4 3 ------- null}
h -t 0.600416 -s 9 -d 8 -p tcp -e 1040 -c 5 -i 15 -a 5 -x {9.0 10.4 -1 ------- null}
+ -t 0.600416 -s 9 -d 8 -p tcp -e 1040 -c 5 -i 16 -a 5 -x {9.0 10.4 4 ------- null}
- -t 0.60208 -s 9 -d 8 -p tcp -e 1040 -c 5 -i 16 -a 5 -x {9.0 10.4 4 ------- null}
h -t 0.60208 -s 9 -d 8 -p tcp -e 1040 -c 5 -i 16 -a 5 -x {9.0 10.4 -1 ------- null}
r -t 0.617056 -s 8 -d 9 -p ack -e 40 -c 5 -i 11 -a 5 -x {10.4 9.0 2 ------- null}
+ -t 0.617056 -s 9 -d 8 -p tcp -e 1040 -c 5 -i 17 -a 5 -x {9.0 10.4 5 ------- null}
- -t 0.617056 -s 9 -d 8 -p tcp -e 1040 -c 5 -i 17 -a 5 -x {9.0 10.4 5 ------- null}
h -t 0.617056 -s 9 -d 8 -p tcp -e 1040 -c 5 -i 17 -a 5 -x {9.0 10.4 -1 ------- null}
+ -t 0.617056 -s 9 -d 8 -p tcp -e 1040 -c 5 -i 18 -a 5 -x {9.0 10.4 6 ------- null}
- -t 0.61872 -s 9 -d 8 -p tcp -e 1040 -c 5 -i 18 -a 5 -x {9.0 10.4 6 ------- null}
h -t 0.61872 -s 9 -d 8 -p tcp -e 1040 -c 5 -i 18 -a 5 -x {9.0 10.4 -1 ------- null}
r -t 0.62208 -s 9 -d 8 -p tcp -e 1040 -c 5 -i 15 -a 5 -x {9.0 10.4 3 ------- null}
+ -t 0.62208 -s 8 -d 10 -p tcp -e 1040 -c 5 -i 15 -a 5 -x {9.0 10.4 3 ------- null}
- -t 0.62208 -s 8 -d 10 -p tcp -e 1040 -c 5 -i 15 -a 5 -x {9.0 10.4 3 ------- null}
h -t 0.62208 -s 8 -d 10 -p tcp -e 1040 -c 5 -i 15 -a 5 -x {9.0 10.4 -1 ------- null}
r -t 0.623264 -s 8 -d 10 -p tcp -e 40 -c 1 -i 0 -a 1 -x {1.0 10.0 0 ------- null}
+ -t 0.623264 -s 10 -d 8 -p ack -e 40 -c 1 -i 19 -a 1 -x {10.0 1.0 0 ------- null}
- -t 0.623264 -s 10 -d 8 -p ack -e 40 -c 1 -i 19 -a 1 -x {10.0 1.0 0 ------- null}
h -t 0.623264 -s 10 -d 8 -p ack -e 40 -c 1 -i 19 -a 1 -x {10.0 1.0 -1 ------- null}
r -t 0.623264 -s 10 -d 8 -p ack -e 40 -c 2 -i 12 -a 2 -x {10.1 3.0 0 ------- null}
+ -t 0.623264 -s 8 -d 6 -p ack -e 40 -c 2 -i 12 -a 2 -x {10.1 3.0 0 ------- null}
- -t 0.623264 -s 8 -d 6 -p ack -e 40 -c 2 -i 12 -a 2 -x {10.1 3.0 0 ------- null}
h -t 0.623264 -s 8 -d 6 -p ack -e 40 -c 2 -i 12 -a 2 -x {10.1 3.0 -1 ------- null}
r -t 0.623264 -s 8 -d 6 -p ack -e 40 -c 3 -i 9 -a 3 -x {10.2 5.0 0 ------- null}
+ -t 0.623264 -s 6 -d 4 -p ack -e 40 -c 3 -i 9 -a 3 -x {10.2 5.0 0 ------- null}
- -t 0.623264 -s 6 -d 4 -p ack -e 40 -c 3 -i 9 -a 3 -x {10.2 5.0 0 ------- null}
h -t 0.623264 -s 6 -d 4 -p ack -e 40 -c 3 -i 9 -a 3 -x {10.2 5.0 -1 ------- null}
r -t 0.623744 -s 9 -d 8 -p tcp -e 1040 -c 5 -i 16 -a 5 -x {9.0 10.4 4 ------- null}
+ -t 0.623744 -s 8 -d 10 -p tcp -e 1040 -c 5 -i 16 -a 5 -x {9.0 10.4 4 ------- null}
r -t 0.63872 -s 9 -d 8 -p tcp -e 1040 -c 5 -i 17 -a 5 -x {9.0 10.4 5 ------- null}
+ -t 0.63872 -s 8 -d 10 -p tcp -e 1040 -c 5 -i 17 -a 5 -x {9.0 10.4 5 ------- null}
- -t 0.63872 -s 8 -d 10 -p tcp -e 1040 -c 5 -i 16 -a 5 -x {9.0 10.4 4 ------- null}
h -t 0.63872 -s 8 -d 10 -p tcp -e 1040 -c 5 -i 16 -a 5 -x {9.0 10.4 -1 ------- null}
r -t 0.640384 -s 9 -d 8 -p tcp -e 1040 -c 5 -i 18 -a 5 -x {9.0 10.4 6 ------- null}
+ -t 0.640384 -s 8 -d 10 -p tcp -e 1040 -c 5 -i 18 -a 5 -x {9.0 10.4 6 ------- null}
- -t 0.65536 -s 8 -d 10 -p tcp -e 1040 -c 5 -i 17 -a 5 -x {9.0 10.4 5 ------- null}
h -t 0.65536 -s 8 -d 10 -p tcp -e 1040 -c 5 -i 17 -a 5 -x {9.0 10.4 -1 ------- null}
- -t 0.672 -s 8 -d 10 -p tcp -e 1040 -c 5 -i 18 -a 5 -x {9.0 10.4 6 ------- null}
h -t 0.672 -s 8 -d 10 -p tcp -e 1040 -c 5 -i 18 -a 5 -x {9.0 10.4 -1 ------- null}
r -t 0.680992 -s 6 -d 8 -p tcp -e 1040 -c 4 -i 13 -a 4 -x {7.0 10.3 1 ------- null}
+ -t 0.680992 -s 8 -d 10 -p tcp -e 1040 -c 4 -i 13 -a 4 -x {7.0 10.3 1 ------- null}
- -t 0.68864 -s 8 -d 10 -p tcp -e 1040 -c 4 -i 13 -a 4 -x {7.0 10.3 1 ------- null}
h -t 0.68864 -s 8 -d 10 -p tcp -e 1040 -c 4 -i 13 -a 4 -x {7.0 10.3 -1 ------- null}
r -t 0.697632 -s 6 -d 8 -p tcp -e 1040 -c 4 -i 14 -a 4 -x {7.0 10.3 2 ------- null}
+ -t 0.697632 -s 8 -d 10 -p tcp -e 1040 -c 4 -i 14 -a 4 -x {7.0 10.3 2 ------- null}
- -t 0.70528 -s 8 -d 10 -p tcp -e 1040 -c 4 -i 14 -a 4 -x {7.0 10.3 2 ------- null}
h -t 0.70528 -s 8 -d 10 -p tcp -e 1040 -c 4 -i 14 -a 4 -x {7.0 10.3 -1 ------- null}
r -t 0.723904 -s 10 -d 8 -p ack -e 40 -c 1 -i 19 -a 1 -x {10.0 1.0 0 ------- null}
+ -t 0.723904 -s 8 -d 6 -p ack -e 40 -c 1 -i 19 -a 1 -x {10.0 1.0 0 ------- null}
- -t 0.723904 -s 8 -d 6 -p ack -e 40 -c 1 -i 19 -a 1 -x {10.0 1.0 0 ------- null}
h -t 0.723904 -s 8 -d 6 -p ack -e 40 -c 1 -i 19 -a 1 -x {10.0 1.0 -1 ------- null}
r -t 0.723904 -s 8 -d 6 -p ack -e 40 -c 2 -i 12 -a 2 -x {10.1 3.0 0 ------- null}
+ -t 0.723904 -s 6 -d 4 -p ack -e 40 -c 2 -i 12 -a 2 -x {10.1 3.0 0 ------- null}
- -t 0.723904 -s 6 -d 4 -p ack -e 40 -c 2 -i 12 -a 2 -x {10.1 3.0 0 ------- null}
h -t 0.723904 -s 6 -d 4 -p ack -e 40 -c 2 -i 12 -a 2 -x {10.1 3.0 -1 ------- null}
r -t 0.723904 -s 6 -d 4 -p ack -e 40 -c 3 -i 9 -a 3 -x {10.2 5.0 0 ------- null}
+ -t 0.723904 -s 4 -d 5 -p ack -e 40 -c 3 -i 9 -a 3 -x {10.2 5.0 0 ------- null}
- -t 0.723904 -s 4 -d 5 -p ack -e 40 -c 3 -i 9 -a 3 -x {10.2 5.0 0 ------- null}
h -t 0.723904 -s 4 -d 5 -p ack -e 40 -c 3 -i 9 -a 3 -x {10.2 5.0 -1 ------- null}
r -t 0.73872 -s 8 -d 10 -p tcp -e 1040 -c 5 -i 15 -a 5 -x {9.0 10.4 3 ------- null}
+ -t 0.73872 -s 10 -d 8 -p ack -e 40 -c 5 -i 20 -a 5 -x {10.4 9.0 3 ------- null}
- -t 0.73872 -s 10 -d 8 -p ack -e 40 -c 5 -i 20 -a 5 -x {10.4 9.0 3 ------- null}
h -t 0.73872 -s 10 -d 8 -p ack -e 40 -c 5 -i 20 -a 5 -x {10.4 9.0 -1 ------- null}
r -t 0.743968 -s 4 -d 5 -p ack -e 40 -c 3 -i 9 -a 3 -x {10.2 5.0 0 ------- null}
+ -t 0.743968 -s 5 -d 4 -p tcp -e 1040 -c 3 -i 21 -a 3 -x {5.0 10.2 1 ------- null}
- -t 0.743968 -s 5 -d 4 -p tcp -e 1040 -c 3 -i 21 -a 3 -x {5.0 10.2 1 ------- null}
h -t 0.743968 -s 5 -d 4 -p tcp -e 1040 -c 3 -i 21 -a 3 -x {5.0 10.2 -1 ------- null}
+ -t 0.743968 -s 5 -d 4 -p tcp -e 1040 -c 3 -i 22 -a 3 -x {5.0 10.2 2 ------- null}
- -t 0.745632 -s 5 -d 4 -p tcp -e 1040 -c 3 -i 22 -a 3 -x {5.0 10.2 2 ------- null}
h -t 0.745632 -s 5 -d 4 -p tcp -e 1040 -c 3 -i 22 -a 3 -x {5.0 10.2 -1 ------- null}
r -t 0.75536 -s 8 -d 10 -p tcp -e 1040 -c 5 -i 16 -a 5 -x {9.0 10.4 4 ------- null}
+ -t 0.75536 -s 10 -d 8 -p ack -e 40 -c 5 -i 23 -a 5 -x {10.4 9.0 4 ------- null}
- -t 0.75536 -s 10 -d 8 -p ack -e 40 -c 5 -i 23 -a 5 -x {10.4 9.0 4 ------- null}
h -t 0.75536 -s 10 -d 8 -p ack -e 40 -c 5 -i 23 -a 5 -x {10.4 9.0 -1 ------- null}
r -t 0.765632 -s 5 -d 4 -p tcp -e 1040 -c 3 -i 21 -a 3 -x {5.0 10.2 1 ------- null}
+ -t 0.765632 -s 4 -d 6 -p tcp -e 1040 -c 3 -i 21 -a 3 -x {5.0 10.2 1 ------- null}
- -t 0.765632 -s 4 -d 6 -p tcp -e 1040 -c 3 -i 21 -a 3 -x {5.0 10.2 1 ------- null}
h -t 0.765632 -s 4 -d 6 -p tcp -e 1040 -c 3 -i 21 -a 3 -x {5.0 10.2 -1 ------- null}
r -t 0.767296 -s 5 -d 4 -p tcp -e 1040 -c 3 -i 22 -a 3 -x {5.0 10.2 2 ------- null}
+ -t 0.767296 -s 4 -d 6 -p tcp -e 1040 -c 3 -i 22 -a 3 -x {5.0 10.2 2 ------- null}
r -t 0.772 -s 8 -d 10 -p tcp -e 1040 -c 5 -i 17 -a 5 -x {9.0 10.4 5 ------- null}
+ -t 0.772 -s 10 -d 8 -p ack -e 40 -c 5 -i 24 -a 5 -x {10.4 9.0 5 ------- null}
- -t 0.772 -s 10 -d 8 -p ack -e 40 -c 5 -i 24 -a 5 -x {10.4 9.0 5 ------- null}
h -t 0.772 -s 10 -d 8 -p ack -e 40 -c 5 -i 24 -a 5 -x {10.4 9.0 -1 ------- null}
- -t 0.782272 -s 4 -d 6 -p tcp -e 1040 -c 3 -i 22 -a 3 -x {5.0 10.2 2 ------- null}
h -t 0.782272 -s 4 -d 6 -p tcp -e 1040 -c 3 -i 22 -a 3 -x {5.0 10.2 -1 ------- null}
r -t 0.78864 -s 8 -d 10 -p tcp -e 1040 -c 5 -i 18 -a 5 -x {9.0 10.4 6 ------- null}
+ -t 0.78864 -s 10 -d 8 -p ack -e 40 -c 5 -i 25 -a 5 -x {10.4 9.0 6 ------- null}
- -t 0.78864 -s 10 -d 8 -p ack -e 40 -c 5 -i 25 -a 5 -x {10.4 9.0 6 ------- null}
h -t 0.78864 -s 10 -d 8 -p ack -e 40 -c 5 -i 25 -a 5 -x {10.4 9.0 -1 ------- null}
r -t 0.80528 -s 8 -d 10 -p tcp -e 1040 -c 4 -i 13 -a 4 -x {7.0 10.3 1 ------- null}
+ -t 0.80528 -s 10 -d 8 -p ack -e 40 -c 4 -i 26 -a 4 -x {10.3 7.0 1 ------- null}
- -t 0.80528 -s 10 -d 8 -p ack -e 40 -c 4 -i 26 -a 4 -x {10.3 7.0 1 ------- null}
h -t 0.80528 -s 10 -d 8 -p ack -e 40 -c 4 -i 26 -a 4 -x {10.3 7.0 -1 ------- null}
r -t 0.82192 -s 8 -d 10 -p tcp -e 1040 -c 4 -i 14 -a 4 -x {7.0 10.3 2 ------- null}
+ -t 0.82192 -s 10 -d 8 -p ack -e 40 -c 4 -i 27 -a 4 -x {10.3 7.0 2 ------- null}
- -t 0.82192 -s 10 -d 8 -p ack -e 40 -c 4 -i 27 -a 4 -x {10.3 7.0 2 ------- null}
h -t 0.82192 -s 10 -d 8 -p ack -e 40 -c 4 -i 27 -a 4 -x {10.3 7.0 -1 ------- null}
r -t 0.824544 -s 8 -d 6 -p ack -e 40 -c 1 -i 19 -a 1 -x {10.0 1.0 0 ------- null}
+ -t 0.824544 -s 6 -d 4 -p ack -e 40 -c 1 -i 19 -a 1 -x {10.0 1.0 0 ------- null}
- -t 0.824544 -s 6 -d 4 -p ack -e 40 -c 1 -i 19 -a 1 -x {10.0 1.0 0 ------- null}
h -t 0.824544 -s 6 -d 4 -p ack -e 40 -c 1 -i 19 -a 1 -x {10.0 1.0 -1 ------- null}
r -t 0.824544 -s 6 -d 4 -p ack -e 40 -c 2 -i 12 -a 2 -x {10.1 3.0 0 ------- null}
+ -t 0.824544 -s 4 -d 2 -p ack -e 40 -c 2 -i 12 -a 2 -x {10.1 3.0 0 ------- null}
- -t 0.824544 -s 4 -d 2 -p ack -e 40 -c 2 -i 12 -a 2 -x {10.1 3.0 0 ------- null}
h -t 0.824544 -s 4 -d 2 -p ack -e 40 -c 2 -i 12 -a 2 -x {10.1 3.0 -1 ------- null}
r -t 0.83936 -s 10 -d 8 -p ack -e 40 -c 5 -i 20 -a 5 -x {10.4 9.0 3 ------- null}
+ -t 0.83936 -s 8 -d 9 -p ack -e 40 -c 5 -i 20 -a 5 -x {10.4 9.0 3 ------- null}
- -t 0.83936 -s 8 -d 9 -p ack -e 40 -c 5 -i 20 -a 5 -x {10.4 9.0 3 ------- null}
h -t 0.83936 -s 8 -d 9 -p ack -e 40 -c 5 -i 20 -a 5 -x {10.4 9.0 -1 ------- null}
r -t 0.856 -s 10 -d 8 -p ack -e 40 -c 5 -i 23 -a 5 -x {10.4 9.0 4 ------- null}
+ -t 0.856 -s 8 -d 9 -p ack -e 40 -c 5 -i 23 -a 5 -x {10.4 9.0 4 ------- null}
- -t 0.856 -s 8 -d 9 -p ack -e 40 -c 5 -i 23 -a 5 -x {10.4 9.0 4 ------- null}
h -t 0.856 -s 8 -d 9 -p ack -e 40 -c 5 -i 23 -a 5 -x {10.4 9.0 -1 ------- null}
r -t 0.859424 -s 8 -d 9 -p ack -e 40 -c 5 -i 20 -a 5 -x {10.4 9.0 3 ------- null}
+ -t 0.859424 -s 9 -d 8 -p tcp -e 1040 -c 5 -i 28 -a 5 -x {9.0 10.4 7 ------- null}
- -t 0.859424 -s 9 -d 8 -p tcp -e 1040 -c 5 -i 28 -a 5 -x {9.0 10.4 7 ------- null}
h -t 0.859424 -s 9 -d 8 -p tcp -e 1040 -c 5 -i 28 -a 5 -x {9.0 10.4 -1 ------- null}
+ -t 0.859424 -s 9 -d 8 -p tcp -e 1040 -c 5 -i 29 -a 5 -x {9.0 10.4 8 ------- null}
- -t 0.861088 -s 9 -d 8 -p tcp -e 1040 -c 5 -i 29 -a 5 -x {9.0 10.4 8 ------- null}
h -t 0.861088 -s 9 -d 8 -p tcp -e 1040 -c 5 -i 29 -a 5 -x {9.0 10.4 -1 ------- null}
r -t 0.87264 -s 10 -d 8 -p ack -e 40 -c 5 -i 24 -a 5 -x {10.4 9.0 5 ------- null}
+ -t 0.87264 -s 8 -d 9 -p ack -e 40 -c 5 -i 24 -a 5 -x {10.4 9.0 5 ------- null}
- -t 0.87264 -s 8 -d 9 -p ack -e 40 -c 5 -i 24 -a 5 -x {10.4 9.0 5 ------- null}
h -t 0.87264 -s 8 -d 9 -p ack -e 40 -c 5 -i 24 -a 5 -x {10.4 9.0 -1 ------- null}
r -t 0.876064 -s 8 -d 9 -p ack -e 40 -c 5 -i 23 -a 5 -x {10.4 9.0 4 ------- null}
+ -t 0.876064 -s 9 -d 8 -p tcp -e 1040 -c 5 -i 30 -a 5 -x {9.0 10.4 9 ------- null}
- -t 0.876064 -s 9 -d 8 -p tcp -e 1040 -c 5 -i 30 -a 5 -x {9.0 10.4 9 ------- null}
h -t 0.876064 -s 9 -d 8 -p tcp -e 1040 -c 5 -i 30 -a 5 -x {9.0 10.4 -1 ------- null}
+ -t 0.876064 -s 9 -d 8 -p tcp -e 1040 -c 5 -i 31 -a 5 -x {9.0 10.4 10 ------- null}
- -t 0.877728 -s 9 -d 8 -p tcp -e 1040 -c 5 -i 31 -a 5 -x {9.0 10.4 10 ------- null}
h -t 0.877728 -s 9 -d 8 -p tcp -e 1040 -c 5 -i 31 -a 5 -x {9.0 10.4 -1 ------- null}
r -t 0.881088 -s 9 -d 8 -p tcp -e 1040 -c 5 -i 28 -a 5 -x {9.0 10.4 7 ------- null}
+ -t 0.881088 -s 8 -d 10 -p tcp -e 1040 -c 5 -i 28 -a 5 -x {9.0 10.4 7 ------- null}
- -t 0.881088 -s 8 -d 10 -p tcp -e 1040 -c 5 -i 28 -a 5 -x {9.0 10.4 7 ------- null}
h -t 0.881088 -s 8 -d 10 -p tcp -e 1040 -c 5 -i 28 -a 5 -x {9.0 10.4 -1 ------- null}
r -t 0.882272 -s 4 -d 6 -p tcp -e 1040 -c 3 -i 21 -a 3 -x {5.0 10.2 1 ------- null}
+ -t 0.882272 -s 6 -d 8 -p tcp -e 1040 -c 3 -i 21 -a 3 -x {5.0 10.2 1 ------- null}
- -t 0.882272 -s 6 -d 8 -p tcp -e 1040 -c 3 -i 21 -a 3 -x {5.0 10.2 1 ------- null}
h -t 0.882272 -s 6 -d 8 -p tcp -e 1040 -c 3 -i 21 -a 3 -x {5.0 10.2 -1 ------- null}
r -t 0.882752 -s 9 -d 8 -p tcp -e 1040 -c 5 -i 29 -a 5 -x {9.0 10.4 8 ------- null}
+ -t 0.882752 -s 8 -d 10 -p tcp -e 1040 -c 5 -i 29 -a 5 -x {9.0 10.4 8 ------- null}
r -t 0.88928 -s 10 -d 8 -p ack -e 40 -c 5 -i 25 -a 5 -x {10.4 9.0 6 ------- null}
+ -t 0.88928 -s 8 -d 9 -p ack -e 40 -c 5 -i 25 -a 5 -x {10.4 9.0 6 ------- null}
- -t 0.88928 -s 8 -d 9 -p ack -e 40 -c 5 -i 25 -a 5 -x {10.4 9.0 6 ------- null}
h -t 0.88928 -s 8 -d 9 -p ack -e 40 -c 5 -i 25 -a 5 -x {10.4 9.0 -1 ------- null}
r -t 0.892704 -s 8 -d 9 -p ack -e 40 -c 5 -i 24 -a 5 -x {10.4 9.0 5 ------- null}
+ -t 0.892704 -s 9 -d 8 -p tcp -e 1040 -c 5 -i 32 -a 5 -x {9.0 10.4 11 ------- null}
- -t 0.892704 -s 9 -d 8 -p tcp -e 1040 -c 5 -i 32 -a 5 -x {9.0 10.4 11 ------- null}
h -t 0.892704 -s 9 -d 8 -p tcp -e 1040 -c 5 -i 32 -a 5 -x {9.0 10.4 -1 ------- null}
+ -t 0.892704 -s 9 -d 8 -p tcp -e 1040 -c 5 -i 33 -a 5 -x {9.0 10.4 12 ------- null}
- -t 0.894368 -s 9 -d 8 -p tcp -e 1040 -c 5 -i 33 -a 5 -x {9.0 10.4 12 ------- null}
h -t 0.894368 -s 9 -d 8 -p tcp -e 1040 -c 5 -i 33 -a 5 -x {9.0 10.4 -1 ------- null}
r -t 0.897728 -s 9 -d 8 -p tcp -e 1040 -c 5 -i 30 -a 5 -x {9.0 10.4 9 ------- null}
+ -t 0.897728 -s 8 -d 10 -p tcp -e 1040 -c 5 -i 30 -a 5 -x {9.0 10.4 9 ------- null}
- -t 0.897728 -s 8 -d 10 -p tcp -e 1040 -c 5 -i 29 -a 5 -x {9.0 10.4 8 ------- null}
h -t 0.897728 -s 8 -d 10 -p tcp -e 1040 -c 5 -i 29 -a 5 -x {9.0 10.4 -1 ------- null}
r -t 0.898912 -s 4 -d 6 -p tcp -e 1040 -c 3 -i 22 -a 3 -x {5.0 10.2 2 ------- null}
+ -t 0.898912 -s 6 -d 8 -p tcp -e 1040 -c 3 -i 22 -a 3 -x {5.0 10.2 2 ------- null}
- -t 0.898912 -s 6 -d 8 -p tcp -e 1040 -c 3 -i 22 -a 3 -x {5.0 10.2 2 ------- null}
h -t 0.898912 -s 6 -d 8 -p tcp -e 1040 -c 3 -i 22 -a 3 -x {5.0 10.2 -1 ------- null}
r -t 0.899392 -s 9 -d 8 -p tcp -e 1040 -c 5 -i 31 -a 5 -x {9.0 10.4 10 ------- null}
+ -t 0.899392 -s 8 -d 10 -p tcp -e 1040 -c 5 -i 31 -a 5 -x {9.0 10.4 10 ------- null}
r -t 0.90592 -s 10 -d 8 -p ack -e 40 -c 4 -i 26 -a 4 -x {10.3 7.0 1 ------- null}
+ -t 0.90592 -s 8 -d 6 -p ack -e 40 -c 4 -i 26 -a 4 -x {10.3 7.0 1 ------- null}
- -t 0.90592 -s 8 -d 6 -p ack -e 40 -c 4 -i 26 -a 4 -x {10.3 7.0 1 ------- null}
h -t 0.90592 -s 8 -d 6 -p ack -e 40 -c 4 -i 26 -a 4 -x {10.3 7.0 -1 ------- null}
r -t 0.909344 -s 8 -d 9 -p ack -e 40 -c 5 -i 25 -a 5 -x {10.4 9.0 6 ------- null}
+ -t 0.909344 -s 9 -d 8 -p tcp -e 1040 -c 5 -i 34 -a 5 -x {9.0 10.4 13 ------- null}
- -t 0.909344 -s 9 -d 8 -p tcp -e 1040 -c 5 -i 34 -a 5 -x {9.0 10.4 13 ------- null}
h -t 0.909344 -s 9 -d 8 -p tcp -e 1040 -c 5 -i 34 -a 5 -x {9.0 10.4 -1 ------- null}
+ -t 0.909344 -s 9 -d 8 -p tcp -e 1040 -c 5 -i 35 -a 5 -x {9.0 10.4 14 ------- null}
- -t 0.911008 -s 9 -d 8 -p tcp -e 1040 -c 5 -i 35 -a 5 -x {9.0 10.4 14 ------- null}
h -t 0.911008 -s 9 -d 8 -p tcp -e 1040 -c 5 -i 35 -a 5 -x {9.0 10.4 -1 ------- null}
r -t 0.914368 -s 9 -d 8 -p tcp -e 1040 -c 5 -i 32 -a 5 -x {9.0 10.4 11 ------- null}
+ -t 0.914368 -s 8 -d 10 -p tcp -e 1040 -c 5 -i 32 -a 5 -x {9.0 10.4 11 ------- null}
- -t 0.914368 -s 8 -d 10 -p tcp -e 1040 -c 5 -i 30 -a 5 -x {9.0 10.4 9 ------- null}
h -t 0.914368 -s 8 -d 10 -p tcp -e 1040 -c 5 -i 30 -a 5 -x {9.0 10.4 -1 ------- null}
r -t 0.916032 -s 9 -d 8 -p tcp -e 1040 -c 5 -i 33 -a 5 -x {9.0 10.4 12 ------- null}
+ -t 0.916032 -s 8 -d 10 -p tcp -e 1040 -c 5 -i 33 -a 5 -x {9.0 10.4 12 ------- null}
r -t 0.92256 -s 10 -d 8 -p ack -e 40 -c 4 -i 27 -a 4 -x {10.3 7.0 2 ------- null}
+ -t 0.92256 -s 8 -d 6 -p ack -e 40 -c 4 -i 27 -a 4 -x {10.3 7.0 2 ------- null}
- -t 0.92256 -s 8 -d 6 -p ack -e 40 -c 4 -i 27 -a 4 -x {10.3 7.0 2 ------- null}
h -t 0.92256 -s 8 -d 6 -p ack -e 40 -c 4 -i 27 -a 4 -x {10.3 7.0 -1 ------- null}
r -t 0.925184 -s 6 -d 4 -p ack -e 40 -c 1 -i 19 -a 1 -x {10.0 1.0 0 ------- null}
+ -t 0.925184 -s 4 -d 2 -p ack -e 40 -c 1 -i 19 -a 1 -x {10.0 1.0 0 ------- null}
- -t 0.925184 -s 4 -d 2 -p ack -e 40 -c 1 -i 19 -a 1 -x {10.0 1.0 0 ------- null}
h -t 0.925184 -s 4 -d 2 -p ack -e 40 -c 1 -i 19 -a 1 -x {10.0 1.0 -1 ------- null}
r -t 0.925184 -s 4 -d 2 -p ack -e 40 -c 2 -i 12 -a 2 -x {10.1 3.0 0 ------- null}
+ -t 0.925184 -s 2 -d 3 -p ack -e 40 -c 2 -i 12 -a 2 -x {10.1 3.0 0 ------- null}