+ 0.1 1 0 tcp 40 ------- 1 1.0 10.0 0 0
- 0.1 1 0 tcp 40 ------- 1 1.0 10.0 0 0
+ 0.1 3 2 tcp 40 ------- 2 3.0 10.1 0 1
- 0.1 3 2 tcp 40 ------- 2 3.0 10.1 0 1
+ 0.1 5 4 tcp 40 ------- 3 5.0 10.2 0 2
- 0.1 5 4 tcp 40 ------- 3 5.0 10.2 0 2
+ 0.1 7 6 tcp 40 ------- 4 7.0 10.3 0 3
- 0.1 7 6 tcp 40 ------- 4 7.0 10.3 0 3
+ 0.1 9 8 tcp 40 ------- 5 9.0 10.4 0 4
- 0.1 9 8 tcp 40 ------- 5 9.0 10.4 0 4
r 0.120064 1 0 tcp 40 ------- 1 1.0 10.0 0 0
+ 0.120064 0 2 tcp 40 ------- 1 1.0 10.0 0 0
- 0.120064 0 2 tcp 40 ------- 1 1.0 10.0 0 0
r 0.120064 3 2 tcp 40 ------- 2 3.0 10.1 0 1
+ 0.120064 2 4 tcp 40 ------- 2 3.0 10.1 0 1
- 0.120064 2 4 tcp 40 ------- 2 3.0 10.1 0 1
r 0.120064 5 4 tcp 40 ------- 3 5.0 10.2 0 2
+ 0.120064 4 6 tcp 40 ------- 3 5.0 10.2 0 2
- 0.120064 4 6 tcp 40 ------- 3 5.0 10.2 0 2
r 0.120064 7 6 tcp 40 ------- 4 7.0 10.3 0 3
+ 0.120064 6 8 tcp 40 ------- 4 7.0 10.3 0 3
- 0.120064 6 8 tcp 40 ------- 4 7.0 10.3 0 3
r 0.120064 9 8 tcp 40 ------- 5 9.0 10.4 0 4
+ 0.120064 8 10 tcp 40 ------- 5 9.0 10.4 0 4
- 0.120064 8 10 tcp 40 ------- 5 9.0 10.4 0 4
r 0.220704 0 2 tcp 40 ------- 1 1.0 10.0 0 0
+ 0.220704 2 4 tcp 40 ------- 1 1.0 10.0 0 0
- 0.220704 2 4 tcp 40 ------- 1 1.0 10.0 0 0
r 0.220704 2 4 tcp 40 ------- 2 3.0 10.1 0 1
+ 0.220704 4 6 tcp 40 ------- 2 3.0 10.1 0 1
- 0.220704 4 6 tcp 40 ------- 2 3.0 10.1 0 1
r 0.220704 4 6 tcp 40 ------- 3 5.0 10.2 0 2
+ 0.220704 6 8 tcp 40 ------- 3 5.0 10.2 0 2
- 0.220704 6 8 tcp 40 ------- 3 5.0 10.2 0 2
r 0.220704 6 8 tcp 40 ------- 4 7.0 10.3 0 3
+ 0.220704 8 10 tcp 40 ------- 4 7.0 10.3 0 3
- 0.220704 8 10 tcp 40 ------- 4 7.0 10.3 0 3
r 0.220704 8 10 tcp 40 ------- 5 9.0 10.4 0 4
+ 0.220704 10 8 ack 40 ------- 5 10.4 9.0 0 5
- 0.220704 10 8 ack 40 ------- 5 10.4 9.0 0 5
r 0.321344 2 4 tcp 40 ------- 1 1.0 10.0 0 0
+ 0.321344 4 6 tcp 40 ------- 1 1.0 10.0 0 0
- 0.321344 4 6 tcp 40 ------- 1 1.0 10.0 0 0
r 0.321344 4 6 tcp 40 ------- 2 3.0 10.1 0 1
+ 0.321344 6 8 tcp 40 ------- 2 3.0 10.1 0 1
- 0.321344 6 8 tcp 40 ------- 2 3.0 10.1 0 1
r 0.321344 6 8 tcp 40 ------- 3 5.0 10.2 0 2
+ 0.321344 8 10 tcp 40 ------- 3 5.0 10.2 0 2
- 0.321344 8 10 tcp 40 ------- 3 5.0 10.2 0 2
r 0.321344 8 10 tcp 40 ------- 4 7.0 10.3 0 3
+ 0.321344 10 8 ack 40 ------- 4 10.3 7.0 0 6
- 0.321344 10 8 ack 40 ------- 4 10.3 7.0 0 6
r 0.321344 10 8 ack 40 ------- 5 10.4 9.0 0 5
+ 0.321344 8 9 ack 40 ------- 5 10.4 9.0 0 5
- 0.321344 8 9 ack 40 ------- 5 10.4 9.0 0 5
r 0.341408 8 9 ack 40 ------- 5 10.4 9.0 0 5
+ 0.341408 9 8 tcp 1040 ------- 5 9.0 10.4 1 7
- 0.341408 9 8 tcp 1040 ------- 5 9.0 10.4 1 7
+ 0.341408 9 8 tcp 1040 ------- 5 9.0 10.4 2 8
- 0.343072 9 8 tcp 1040 ------- 5 9.0 10.4 2 8
r 0.363072 9 8 tcp 1040 ------- 5 9.0 10.4 1 7
+ 0.363072 8 10 tcp 1040 ------- 5 9.0 10.4 1 7
- 0.363072 8 10 tcp 1040 ------- 5 9.0 10.4 1 7
r 0.364736 9 8 tcp 1040 ------- 5 9.0 10.4 2 8
+ 0.364736 8 10 tcp 1040 ------- 5 9.0 10.4 2 8
- 0.379712 8 10 tcp 1040 ------- 5 9.0 10.4 2 8
r 0.421984 4 6 tcp 40 ------- 1 1.0 10.0 0 0
+ 0.421984 6 8 tcp 40 ------- 1 1.0 10.0 0 0
- 0.421984 6 8 tcp 40 ------- 1 1.0 10.0 0 0
r 0.421984 6 8 tcp 40 ------- 2 3.0 10.1 0 1
+ 0.421984 8 10 tcp 40 ------- 2 3.0 10.1 0 1
- 0.421984 8 10 tcp 40 ------- 2 3.0 10.1 0 1
r 0.421984 8 10 tcp 40 ------- 3 5.0 10.2 0 2
+ 0.421984 10 8 ack 40 ------- 3 10.2 5.0 0 9
- 0.421984 10 8 ack 40 ------- 3 10.2 5.0 0 9
r 0.421984 10 8 ack 40 ------- 4 10.3 7.0 0 6
+ 0.421984 8 6 ack 40 ------- 4 10.3 7.0 0 6
- 0.421984 8 6 ack 40 ------- 4 10.3 7.0 0 6
r 0.479712 8 10 tcp 1040 ------- 5 9.0 10.4 1 7
+ 0.479712 10 8 ack 40 ------- 5 10.4 9.0 1 10
- 0.479712 10 8 ack 40 ------- 5 10.4 9.0 1 10
r 0.496352 8 10 tcp 1040 ------- 5 9.0 10.4 2 8
+ 0.496352 10 8 ack 40 ------- 5 10.4 9.0 2 11
- 0.496352 10 8 ack 40 ------- 5 10.4 9.0 2 11
r 0.522624 6 8 tcp 40 ------- 1 1.0 10.0 0 0
+ 0.522624 8 10 tcp 40 ------- 1 1.0 10.0 0 0
- 0.522624 8 10 tcp 40 ------- 1 1.0 10.0 0 0
r 0.522624 8 10 tcp 40 ------- 2 3.0 10.1 0 1
+ 0.522624 10 8 ack 40 ------- 2 10.1 3.0 0 12
- 0.522624 10 8 ack 40 ------- 2 10.1 3.0 0 12
r 0.522624 10 8 ack 40 ------- 3 10.2 5.0 0 9
+ 0.522624 8 6 ack 40 ------- 3 10.2 5.0 0 9
- 0.522624 8 6 ack 40 ------- 3 10.2 5.0 0 9
r 0.522624 8 6 ack 40 ------- 4 10.3 7.0 0 6
+ 0.522624 6 7 ack 40 ------- 4 10.3 7.0 0 6
- 0.522624 6 7 ack 40 ------- 4 10.3 7.0 0 6
r 0.542688 6 7 ack 40 ------- 4 10.3 7.0 0 6
+ 0.542688 7 6 tcp 1040 ------- 4 7.0 10.3 1 13
- 0.542688 7 6 tcp 1040 ------- 4 7.0 10.3 1 13
+ 0.542688 7 6 tcp 1040 ------- 4 7.0 10.3 2 14
- 0.544352 7 6 tcp 1040 ------- 4 7.0 10.3 2 14
r 0.564352 7 6 tcp 1040 ------- 4 7.0 10.3 1 13
+ 0.564352 6 8 tcp 1040 ------- 4 7.0 10.3 1 13
- 0.564352 6 8 tcp 1040 ------- 4 7.0 10.3 1 13
r 0.566016 7 6 tcp 1040 ------- 4 7.0 10.3 2 14
+ 0.566016 6 8 tcp 1040 ------- 4 7.0 10.3 2 14
r 0.580352 10 8 ack 40 ------- 5 10.4 9.0 1 10
+ 0.580352 8 9 ack 40 ------- 5 10.4 9.0 1 10
- 0.580352 8 9 ack 40 ------- 5 10.4 9.0 1 10
- 0.580992 6 8 tcp 1040 ------- 4 7.0 10.3 2 14
r 0.596992 10 8 ack 40 ------- 5 10.4 9.0 2 11
+ 0.596992 8 9 ack 40 ------- 5 10.4 9.0 2 11
- 0.596992 8 9 ack 40 ------- 5 10.4 9.0 2 11
r 0.600416 8 9 ack 40 ------- 5 10.4 9.0 1 10
+ 0.600416 9 8 tcp 1040 ------- 5 9.0 10.4 3 15
- 0.600416 9 8 tcp 1040 ------- 5 9.0 10.4 3 15
+ 0.600416 9 8 tcp 1040 ------- 5 9.0 10.4 4 16
- 0.60208 9 8 tcp 1040 ------- 5 9.0 10.4 4 16
r 0.617056 8 9 ack 40 ------- 5 10.4 9.0 2 11
+ 0.617056 9 8 tcp 1040 ------- 5 9.0 10.4 5 17
- 0.617056 9 8 tcp 1040 ------- 5 9.0 10.4 5 17
+ 0.617056 9 8 tcp 1040 ------- 5 9.0 10.4 6 18
- 0.61872 9 8 tcp 1040 ------- 5 9.0 10.4 6 18
r 0.62208 9 8 tcp 1040 ------- 5 9.0 10.4 3 15
+ 0.62208 8 10 tcp 1040 ------- 5 9.0 10.4 3 15
- 0.62208 8 10 tcp 1040 ------- 5 9.0 10.4 3 15
r 0.623264 8 10 tcp 40 ------- 1 1.0 10.0 0 0
+ 0.623264 10 8 ack 40 ------- 1 10.0 1.0 0 19
- 0.623264 10 8 ack 40 ------- 1 10.0 1.0 0 19
r 0.623264 10 8 ack 40 ------- 2 10.1 3.0 0 12
+ 0.623264 8 6 ack 40 ------- 2 10.1 3.0 0 12
- 0.623264 8 6 ack 40 ------- 2 10.1 3.0 0 12
r 0.623264 8 6 ack 40 ------- 3 10.2 5.0 0 9
+ 0.623264 6 4 ack 40 ------- 3 10.2 5.0 0 9
- 0.623264 6 4 ack 40 ------- 3 10.2 5.0 0 9
r 0.623744 9 8 tcp 1040 ------- 5 9.0 10.4 4 16
+ 0.623744 8 10 tcp 1040 ------- 5 9.0 10.4 4 16
r 0.63872 9 8 tcp 1040 ------- 5 9.0 10.4 5 17
+ 0.63872 8 10 tcp 1040 ------- 5 9.0 10.4 5 17
- 0.63872 8 10 tcp 1040 ------- 5 9.0 10.4 4 16
r 0.640384 9 8 tcp 1040 ------- 5 9.0 10.4 6 18
+ 0.640384 8 10 tcp 1040 ------- 5 9.0 10.4 6 18
- 0.65536 8 10 tcp 1040 ------- 5 9.0 10.4 5 17
- 0.672 8 10 tcp 1040 ------- 5 9.0 10.4 6 18
r 0.680992 6 8 tcp 1040 ------- 4 7.0 10.3 1 13
+ 0.680992 8 10 tcp 1040 ------- 4 7.0 10.3 1 13
- 0.68864 8 10 tcp 1040 ------- 4 7.0 10.3 1 13
r 0.697632 6 8 tcp 1040 ------- 4 7.0 10.3 2 14
+ 0.697632 8 10 tcp 1040 ------- 4 7.0 10.3 2 14
- 0.70528 8 10 tcp 1040 ------- 4 7.0 10.3 2 14
r 0.723904 10 8 ack 40 ------- 1 10.0 1.0 0 19
+ 0.723904 8 6 ack 40 ------- 1 10.0 1.0 0 19
- 0.723904 8 6 ack 40 ------- 1 10.0 1.0 0 19
r 0.723904 8 6 ack 40 ------- 2 10.1 3.0 0 12
+ 0.723904 6 4 ack 40 ------- 2 10.1 3.0 0 12
- 0.723904 6 4 ack 40 ------- 2 10.1 3.0 0 12
r 0.723904 6 4 ack 40 ------- 3 10.2 5.0 0 9
+ 0.723904 4 5 ack 40 ------- 3 10.2 5.0 0 9
- 0.723904 4 5 ack 40 ------- 3 10.2 5.0 0 9
r 0.73872 8 10 tcp 1040 ------- 5 9.0 10.4 3 15
+ 0.73872 10 8 ack 40 ------- 5 10.4 9.0 3 20
- 0.73872 10 8 ack 40 ------- 5 10.4 9.0 3 20
r 0.743968 4 5 ack 40 ------- 3 10.2 5.0 0 9
+ 0.743968 5 4 tcp 1040 ------- 3 5.0 10.2 1 21
- 0.743968 5 4 tcp 1040 ------- 3 5.0 10.2 1 21
+ 0.743968 5 4 tcp 1040 ------- 3 5.0 10.2 2 22
- 0.745632 5 4 tcp 1040 ------- 3 5.0 10.2 2 22
r 0.75536 8 10 tcp 1040 ------- 5 9.0 10.4 4 16
+ 0.75536 10 8 ack 40 ------- 5 10.4 9.0 4 23
- 0.75536 10 8 ack 40 ------- 5 10.4 9.0 4 23
r 0.765632 5 4 tcp 1040 ------- 3 5.0 10.2 1 21
+ 0.765632 4 6 tcp 1040 ------- 3 5.0 10.2 1 21
- 0.765632 4 6 tcp 1040 ------- 3 5.0 10.2 1 21
r 0.767296 5 4 tcp 1040 ------- 3 5.0 10.2 2 22
+ 0.767296 4 6 tcp 1040 ------- 3 5.0 10.2 2 22
r 0.772 8 10 tcp 1040 ------- 5 9.0 10.4 5 17
+ 0.772 10 8 ack 40 ------- 5 10.4 9.0 5 24
- 0.772 10 8 ack 40 ------- 5 10.4 9.0 5 24
- 0.782272 4 6 tcp 1040 ------- 3 5.0 10.2 2 22
r 0.78864 8 10 tcp 1040 ------- 5 9.0 10.4 6 18
+ 0.78864 10 8 ack 40 ------- 5 10.4 9.0 6 25
- 0.78864 10 8 ack 40 ------- 5 10.4 9.0 6 25
r 0.80528 8 10 tcp 1040 ------- 4 7.0 10.3 1 13
+ 0.80528 10 8 ack 40 ------- 4 10.3 7.0 1 26
- 0.80528 10 8 ack 40 ------- 4 10.3 7.0 1 26
r 0.82192 8 10 tcp 1040 ------- 4 7.0 10.3 2 14
+ 0.82192 10 8 ack 40 ------- 4 10.3 7.0 2 27
- 0.82192 10 8 ack 40 ------- 4 10.3 7.0 2 27
r 0.824544 8 6 ack 40 ------- 1 10.0 1.0 0 19
+ 0.824544 6 4 ack 40 ------- 1 10.0 1.0 0 19
- 0.824544 6 4 ack 40 ------- 1 10.0 1.0 0 19
r 0.824544 6 4 ack 40 ------- 2 10.1 3.0 0 12
+ 0.824544 4 2 ack 40 ------- 2 10.1 3.0 0 12
- 0.824544 4 2 ack 40 ------- 2 10.1 3.0 0 12
r 0.83936 10 8 ack 40 ------- 5 10.4 9.0 3 20
+ 0.83936 8 9 ack 40 ------- 5 10.4 9.0 3 20
- 0.83936 8 9 ack 40 ------- 5 10.4 9.0 3 20
r 0.856 10 8 ack 40 ------- 5 10.4 9.0 4 23
+ 0.856 8 9 ack 40 ------- 5 10.4 9.0 4 23
- 0.856 8 9 ack 40 ------- 5 10.4 9.0 4 23
r 0.859424 8 9 ack 40 ------- 5 10.4 9.0 3 20
+ 0.859424 9 8 tcp 1040 ------- 5 9.0 10.4 7 28
- 0.859424 9 8 tcp 1040 ------- 5 9.0 10.4 7 28
+ 0.859424 9 8 tcp 1040 ------- 5 9.0 10.4 8 29
- 0.861088 9 8 tcp 1040 ------- 5 9.0 10.4 8 29
r 0.87264 10 8 ack 40 ------- 5 10.4 9.0 5 24
+ 0.87264 8 9 ack 40 ------- 5 10.4 9.0 5 24
- 0.87264 8 9 ack 40 ------- 5 10.4 9.0 5 24
r 0.876064 8 9 ack 40 ------- 5 10.4 9.0 4 23
+ 0.876064 9 8 tcp 1040 ------- 5 9.0 10.4 9 30
- 0.876064 9 8 tcp 1040 ------- 5 9.0 10.4 9 30
+ 0.876064 9 8 tcp 1040 ------- 5 9.0 10.4 10 31
- 0.877728 9 8 tcp 1040 ------- 5 9.0 10.4 10 31
r 0.881088 9 8 tcp 1040 ------- 5 9.0 10.4 7 28
+ 0.881088 8 10 tcp 1040 ------- 5 9.0 10.4 7 28
- 0.881088 8 10 tcp 1040 ------- 5 9.0 10.4 7 28
r 0.882272 4 6 tcp 1040 ------- 3 5.0 10.2 1 21
+ 0.882272 6 8 tcp 1040 ------- 3 5.0 10.2 1 21
- 0.882272 6 8 tcp 1040 ------- 3 5.0 10.2 1 21
r 0.882752 9 8 tcp 1040 ------- 5 9.0 10.4 8 29
+ 0.882752 8 10 tcp 1040 ------- 5 9.0 10.4 8 29
r 0.88928 10 8 ack 40 ------- 5 10.4 9.0 6 25
+ 0.88928 8 9 ack 40 ------- 5 10.4 9.0 6 25
- 0.88928 8 9 ack 40 ------- 5 10.4 9.0 6 25
r 0.892704 8 9 ack 40 ------- 5 10.4 9.0 5 24
+ 0.892704 9 8 tcp 1040 ------- 5 9.0 10.4 11 32
- 0.892704 9 8 tcp 1040 ------- 5 9.0 10.4 11 32
+ 0.892704 9 8 tcp 1040 ------- 5 9.0 10.4 12 33
- 0.894368 9 8 tcp 1040 ------- 5 9.0 10.4 12 33
r 0.897728 9 8 tcp 1040 ------- 5 9.0 10.4 9 30
+ 0.897728 8 10 tcp 1040 ------- 5 9.0 10.4 9 30
- 0.897728 8 10 tcp 1040 ------- 5 9.0 10.4 8 29
r 0.898912 4 6 tcp 1040 ------- 3 5.0 10.2 2 22
+ 0.898912 6 8 tcp 1040 ------- 3 5.0 10.2 2 22
- 0.898912 6 8 tcp 1040 ------- 3 5.0 10.2 2 22
r 0.899392 9 8 tcp 1040 ------- 5 9.0 10.4 10 31
+ 0.899392 8 10 tcp 1040 ------- 5 9.0 10.4 10 31
r 0.90592 10 8 ack 40 ------- 4 10.3 7.0 1 26
+ 0.90592 8 6 ack 40 ------- 4 10.3 7.0 1 26
- 0.90592 8 6 ack 40 ------- 4 10.3 7.0 1 26
r 0.909344 8 9 ack 40 ------- 5 10.4 9.0 6 25
+ 0.909344 9 8 tcp 1040 ------- 5 9.0 10.4 13 34
- 0.909344 9 8 tcp 1040 ------- 5 9.0 10.4 13 34
+ 0.909344 9 8 tcp 1040 ------- 5 9.0 10.4 14 35
- 0.911008 9 8 tcp 1040 ------- 5 9.0 10.4 14 35
r 0.914368 9 8 tcp 1040 ------- 5 9.0 10.4 11 32
+ 0.914368 8 10 tcp 1040 ------- 5 9.0 10.4 11 32
- 0.914368 8 10 tcp 1040 ------- 5 9.0 10.4 9 30
r 0.916032 9 8 tcp 1040 ------- 5 9.0 10.4 12 33
+ 0.916032 8 10 tcp 1040 ------- 5 9.0 10.4 12 33
r 0.92256 10 8 ack 40 ------- 4 10.3 7.0 2 27
+ 0.92256 8 6 ack 40 ------- 4 10.3 7.0 2 27
- 0.92256 8 6 ack 40 ------- 4 10.3 7.0 2 27
r 0.925184 6 4 ack 40 ------- 1 10.0 1.0 0 19
+ 0.925184 4 2 ack 40 ------- 1 10.0 1.0 0 19
- 0.925184 4 2 ack 40 ------- 1 10.0 1.0 0 19
r 0.925184 4 2 ack 40 ------- 2 10.1 3.0 0 12
+ 0.925184 2 3 ack 40 ------- 2 10.1 3.0 0 12
- 0.925184 2 3 ack 40 ------- 2 10.1 3.0 0 12
r 0.931008 9 8 tcp 1040 ------- 5 9.0 10.4 13 34
+ 0.931008 8 10 tcp 1040 ------- 5 9.0 10.4 13 34
- 0.931008 8 10 tcp 1040 ------- 5 9.0 10.4 10 31
r 0.932672 9 8 tcp 1040 ------- 5 9.0 10.4 14 35
+ 0.932672 8 10 tcp 1040 ------- 5 9.0 10.4 14 35
r 0.945248 2 3 ack 40 ------- 2 10.1 3.0 0 12
+ 0.945248 3 2 tcp 1040 ------- 2 3.0 10.1 1 36
- 0.945248 3 2 tcp 1040 ------- 2 3.0 10.1 1 36
+ 0.945248 3 2 tcp 1040 ------- 2 3.0 10.1 2 37
- 0.946912 3 2 tcp 1040 ------- 2 3.0 10.1 2 37
- 0.947648 8 10 tcp 1040 ------- 5 9.0 10.4 11 32
- 0.964288 8 10 tcp 1040 ------- 5 9.0 10.4 12 33
r 0.966912 3 2 tcp 1040 ------- 2 3.0 10.1 1 36
+ 0.966912 2 4 tcp 1040 ------- 2 3.0 10.1 1 36
- 0.966912 2 4 tcp 1040 ------- 2 3.0 10.1 1 36
r 0.968576 3 2 tcp 1040 ------- 2 3.0 10.1 2 37
+ 0.968576 2 4 tcp 1040 ------- 2 3.0 10.1 2 37
- 0.980928 8 10 tcp 1040 ------- 5 9.0 10.4 13 34
- 0.983552 2 4 tcp 1040 ------- 2 3.0 10.1 2 37
- 0.997568 8 10 tcp 1040 ------- 5 9.0 10.4 14 35
r 0.997728 8 10 tcp 1040 ------- 5 9.0 10.4 7 28
+ 0.997728 10 8 ack 40 ------- 5 10.4 9.0 7 38
- 0.997728 10 8 ack 40 ------- 5 10.4 9.0 7 38
r 0.998912 6 8 tcp 1040 ------- 3 5.0 10.2 1 21
+ 0.998912 8 10 tcp 1040 ------- 3 5.0 10.2 1 21
r 1.00656 8 6 ack 40 ------- 4 10.3 7.0 1 26
+ 1.00656 6 7 ack 40 ------- 4 10.3 7.0 1 26
- 1.00656 6 7 ack 40 ------- 4 10.3 7.0 1 26
- 1.014208 8 10 tcp 1040 ------- 3 5.0 10.2 1 21
r 1.014368 8 10 tcp 1040 ------- 5 9.0 10.4 8 29
+ 1.014368 10 8 ack 40 ------- 5 10.4 9.0 8 39
- 1.014368 10 8 ack 40 ------- 5 10.4 9.0 8 39
r 1.015552 6 8 tcp 1040 ------- 3 5.0 10.2 2 22
+ 1.015552 8 10 tcp 1040 ------- 3 5.0 10.2 2 22
r 1.0232 8 6 ack 40 ------- 4 10.3 7.0 2 27
+ 1.0232 6 7 ack 40 ------- 4 10.3 7.0 2 27
- 1.0232 6 7 ack 40 ------- 4 10.3 7.0 2 27
r 1.025824 4 2 ack 40 ------- 1 10.0 1.0 0 19
+ 1.025824 2 0 ack 40 ------- 1 10.0 1.0 0 19
- 1.025824 2 0 ack 40 ------- 1 10.0 1.0 0 19
r 1.026624 6 7 ack 40 ------- 4 10.3 7.0 1 26
+ 1.026624 7 6 tcp 1040 ------- 4 7.0 10.3 3 40
- 1.026624 7 6 tcp 1040 ------- 4 7.0 10.3 3 40
+ 1.026624 7 6 tcp 1040 ------- 4 7.0 10.3 4 41
- 1.028288 7 6 tcp 1040 ------- 4 7.0 10.3 4 41
- 1.030848 8 10 tcp 1040 ------- 3 5.0 10.2 2 22
r 1.031008 8 10 tcp 1040 ------- 5 9.0 10.4 9 30
+ 1.031008 10 8 ack 40 ------- 5 10.4 9.0 9 42
- 1.031008 10 8 ack 40 ------- 5 10.4 9.0 9 42
r 1.043264 6 7 ack 40 ------- 4 10.3 7.0 2 27
+ 1.043264 7 6 tcp 1040 ------- 4 7.0 10.3 5 43
- 1.043264 7 6 tcp 1040 ------- 4 7.0 10.3 5 43
+ 1.043264 7 6 tcp 1040 ------- 4 7.0 10.3 6 44
- 1.044928 7 6 tcp 1040 ------- 4 7.0 10.3 6 44
r 1.047648 8 10 tcp 1040 ------- 5 9.0 10.4 10 31
+ 1.047648 10 8 ack 40 ------- 5 10.4 9.0 10 45
- 1.047648 10 8 ack 40 ------- 5 10.4 9.0 10 45
r 1.048288 7 6 tcp 1040 ------- 4 7.0 10.3 3 40
+ 1.048288 6 8 tcp 1040 ------- 4 7.0 10.3 3 40
- 1.048288 6 8 tcp 1040 ------- 4 7.0 10.3 3 40
r 1.049952 7 6 tcp 1040 ------- 4 7.0 10.3 4 41
+ 1.049952 6 8 tcp 1040 ------- 4 7.0 10.3 4 41
r 1.064288 8 10 tcp 1040 ------- 5 9.0 10.4 11 32
+ 1.064288 10 8 ack 40 ------- 5 10.4 9.0 11 46
- 1.064288 10 8 ack 40 ------- 5 10.4 9.0 11 46
r 1.064928 7 6 tcp 1040 ------- 4 7.0 10.3 5 43
+ 1.064928 6 8 tcp 1040 ------- 4 7.0 10.3 5 43
- 1.064928 6 8 tcp 1040 ------- 4 7.0 10.3 4 41
r 1.066592 7 6 tcp 1040 ------- 4 7.0 10.3 6 44
+ 1.066592 6 8 tcp 1040 ------- 4 7.0 10.3 6 44
r 1.080928 8 10 tcp 1040 ------- 5 9.0 10.4 12 33
+ 1.080928 10 8 ack 40 ------- 5 10.4 9.0 12 47
- 1.080928 10 8 ack 40 ------- 5 10.4 9.0 12 47
- 1.081568 6 8 tcp 1040 ------- 4 7.0 10.3 5 43
r 1.083552 2 4 tcp 1040 ------- 2 3.0 10.1 1 36
+ 1.083552 4 6 tcp 1040 ------- 2 3.0 10.1 1 36
- 1.083552 4 6 tcp 1040 ------- 2 3.0 10.1 1 36
r 1.097568 8 10 tcp 1040 ------- 5 9.0 10.4 13 34
+ 1.097568 10 8 ack 40 ------- 5 10.4 9.0 13 48
- 1.097568 10 8 ack 40 ------- 5 10.4 9.0 13 48
- 1.098208 6 8 tcp 1040 ------- 4 7.0 10.3 6 44
r 1.098368 10 8 ack 40 ------- 5 10.4 9.0 7 38
+ 1.098368 8 9 ack 40 ------- 5 10.4 9.0 7 38
- 1.098368 8 9 ack 40 ------- 5 10.4 9.0 7 38
r 1.100192 2 4 tcp 1040 ------- 2 3.0 10.1 2 37
+ 1.100192 4 6 tcp 1040 ------- 2 3.0 10.1 2 37
- 1.100192 4 6 tcp 1040 ------- 2 3.0 10.1 2 37
r 1.114208 8 10 tcp 1040 ------- 5 9.0 10.4 14 35
+ 1.114208 10 8 ack 40 ------- 5 10.4 9.0 14 49
- 1.114208 10 8 ack 40 ------- 5 10.4 9.0 14 49
r 1.115008 10 8 ack 40 ------- 5 10.4 9.0 8 39
+ 1.115008 8 9 ack 40 ------- 5 10.4 9.0 8 39
- 1.115008 8 9 ack 40 ------- 5 10.4 9.0 8 39
r 1.118432 8 9 ack 40 ------- 5 10.4 9.0 7 38
+ 1.118432 9 8 tcp 1040 ------- 5 9.0 10.4 15 50
- 1.118432 9 8 tcp 1040 ------- 5 9.0 10.4 15 50
+ 1.118432 9 8 tcp 1040 ------- 5 9.0 10.4 16 51
- 1.120096 9 8 tcp 1040 ------- 5 9.0 10.4 16 51
r 1.126464 2 0 ack 40 ------- 1 10.0 1.0 0 19
+ 1.126464 0 1 ack 40 ------- 1 10.0 1.0 0 19
- 1.126464 0 1 ack 40 ------- 1 10.0 1.0 0 19
r 1.130848 8 10 tcp 1040 ------- 3 5.0 10.2 1 21
+ 1.130848 10 8 ack 40 ------- 3 10.2 5.0 1 52
- 1.130848 10 8 ack 40 ------- 3 10.2 5.0 1 52
r 1.131648 10 8 ack 40 ------- 5 10.4 9.0 9 42
+ 1.131648 8 9 ack 40 ------- 5 10.4 9.0 9 42
- 1.131648 8 9 ack 40 ------- 5 10.4 9.0 9 42
r 1.135072 8 9 ack 40 ------- 5 10.4 9.0 8 39
+ 1.135072 9 8 tcp 1040 ------- 5 9.0 10.4 17 53
- 1.135072 9 8 tcp 1040 ------- 5 9.0 10.4 17 53
+ 1.135072 9 8 tcp 1040 ------- 5 9.0 10.4 18 54
- 1.136736 9 8 tcp 1040 ------- 5 9.0 10.4 18 54
r 1.140096 9 8 tcp 1040 ------- 5 9.0 10.4 15 50
+ 1.140096 8 10 tcp 1040 ------- 5 9.0 10.4 15 50
- 1.140096 8 10 tcp 1040 ------- 5 9.0 10.4 15 50
r 1.14176 9 8 tcp 1040 ------- 5 9.0 10.4 16 51
+ 1.14176 8 10 tcp 1040 ------- 5 9.0 10.4 16 51
r 1.146528 0 1 ack 40 ------- 1 10.0 1.0 0 19
+ 1.146528 1 0 tcp 1040 ------- 1 1.0 10.0 1 55
- 1.146528 1 0 tcp 1040 ------- 1 1.0 10.0 1 55
+ 1.146528 1 0 tcp 1040 ------- 1 1.0 10.0 2 56
r 1.147488 8 10 tcp 1040 ------- 3 5.0 10.2 2 22
+ 1.147488 10 8 ack 40 ------- 3 10.2 5.0 2 57
- 1.147488 10 8 ack 40 ------- 3 10.2 5.0 2 57
- 1.148192 1 0 tcp 1040 ------- 1 1.0 10.0 2 56
r 1.148288 10 8 ack 40 ------- 5 10.4 9.0 10 45
+ 1.148288 8 9 ack 40 ------- 5 10.4 9.0 10 45
- 1.148288 8 9 ack 40 ------- 5 10.4 9.0 10 45
r 1.151712 8 9 ack 40 ------- 5 10.4 9.0 9 42
+ 1.151712 9 8 tcp 1040 ------- 5 9.0 10.4 19 58
- 1.151712 9 8 tcp 1040 ------- 5 9.0 10.4 19 58
+ 1.151712 9 8 tcp 1040 ------- 5 9.0 10.4 20 59
- 1.153376 9 8 tcp 1040 ------- 5 9.0 10.4 20 59
- 1.156736 8 10 tcp 1040 ------- 5 9.0 10.4 16 51
r 1.156736 9 8 tcp 1040 ------- 5 9.0 10.4 17 53
+ 1.156736 8 10 tcp 1040 ------- 5 9.0 10.4 17 53
r 1.1584 9 8 tcp 1040 ------- 5 9.0 10.4 18 54
+ 1.1584 8 10 tcp 1040 ------- 5 9.0 10.4 18 54
r 1.164928 6 8 tcp 1040 ------- 4 7.0 10.3 3 40
+ 1.164928 8 10 tcp 1040 ------- 4 7.0 10.3 3 40
r 1.164928 10 8 ack 40 ------- 5 10.4 9.0 11 46
+ 1.164928 8 9 ack 40 ------- 5 10.4 9.0 11 46
- 1.164928 8 9 ack 40 ------- 5 10.4 9.0 11 46
r 1.168192 1 0 tcp 1040 ------- 1 1.0 10.0 1 55
+ 1.168192 0 2 tcp 1040 ------- 1 1.0 10.0 1 55
- 1.168192 0 2 tcp 1040 ------- 1 1.0 10.0 1 55
r 1.168352 8 9 ack 40 ------- 5 10.4 9.0 10 45
+ 1.168352 9 8 tcp 1040 ------- 5 9.0 10.4 21 60
- 1.168352 9 8 tcp 1040 ------- 5 9.0 10.4 21 60
+ 1.168352 9 8 tcp 1040 ------- 5 9.0 10.4 22 61
r 1.169856 1 0 tcp 1040 ------- 1 1.0 10.0 2 56
+ 1.169856 0 2 tcp 1040 ------- 1 1.0 10.0 2 56
- 1.170016 9 8 tcp 1040 ------- 5 9.0 10.4 22 61
- 1.173376 8 10 tcp 1040 ------- 5 9.0 10.4 17 53
r 1.173376 9 8 tcp 1040 ------- 5 9.0 10.4 19 58
+ 1.173376 8 10 tcp 1040 ------- 5 9.0 10.4 19 58
r 1.17504 9 8 tcp 1040 ------- 5 9.0 10.4 20 59
+ 1.17504 8 10 tcp 1040 ------- 5 9.0 10.4 20 59
r 1.181568 6 8 tcp 1040 ------- 4 7.0 10.3 4 41
+ 1.181568 8 10 tcp 1040 ------- 4 7.0 10.3 4 41
r 1.181568 10 8 ack 40 ------- 5 10.4 9.0 12 47
+ 1.181568 8 9 ack 40 ------- 5 10.4 9.0 12 47
- 1.181568 8 9 ack 40 ------- 5 10.4 9.0 12 47
- 1.184832 0 2 tcp 1040 ------- 1 1.0 10.0 2 56
r 1.184992 8 9 ack 40 ------- 5 10.4 9.0 11 46
+ 1.184992 9 8 tcp 1040 ------- 5 9.0 10.4 23 62
- 1.184992 9 8 tcp 1040 ------- 5 9.0 10.4 23 62
+ 1.184992 9 8 tcp 1040 ------- 5 9.0 10.4 24 63
- 1.186656 9 8 tcp 1040 ------- 5 9.0 10.4 24 63
- 1.190016 8 10 tcp 1040 ------- 5 9.0 10.4 18 54
r 1.190016 9 8 tcp 1040 ------- 5 9.0 10.4 21 60
+ 1.190016 8 10 tcp 1040 ------- 5 9.0 10.4 21 60
r 1.19168 9 8 tcp 1040 ------- 5 9.0 10.4 22 61
+ 1.19168 8 10 tcp 1040 ------- 5 9.0 10.4 22 61
r 1.198208 6 8 tcp 1040 ------- 4 7.0 10.3 5 43
+ 1.198208 8 10 tcp 1040 ------- 4 7.0 10.3 5 43
r 1.198208 10 8 ack 40 ------- 5 10.4 9.0 13 48
+ 1.198208 8 9 ack 40 ------- 5 10.4 9.0 13 48
- 1.198208 8 9 ack 40 ------- 5 10.4 9.0 13 48
r 1.200192 4 6 tcp 1040 ------- 2 3.0 10.1 1 36
+ 1.200192 6 8 tcp 1040 ------- 2 3.0 10.1 1 36
- 1.200192 6 8 tcp 1040 ------- 2 3.0 10.1 1 36
r 1.201632 8 9 ack 40 ------- 5 10.4 9.0 12 47
+ 1.201632 9 8 tcp 1040 ------- 5 9.0 10.4 25 64
- 1.201632 9 8 tcp 1040 ------- 5 9.0 10.4 25 64
+ 1.201632 9 8 tcp 1040 ------- 5 9.0 10.4 26 65
- 1.203296 9 8 tcp 1040 ------- 5 9.0 10.4 26 65
- 1.206656 8 10 tcp 1040 ------- 4 7.0 10.3 3 40
r 1.206656 9 8 tcp 1040 ------- 5 9.0 10.4 23 62
+ 1.206656 8 10 tcp 1040 ------- 5 9.0 10.4 23 62
r 1.20832 9 8 tcp 1040 ------- 5 9.0 10.4 24 63
+ 1.20832 8 10 tcp 1040 ------- 5 9.0 10.4 24 63
r 1.214848 6 8 tcp 1040 ------- 4 7.0 10.3 6 44
+ 1.214848 8 10 tcp 1040 ------- 4 7.0 10.3 6 44
r 1.214848 10 8 ack 40 ------- 5 10.4 9.0 14 49
+ 1.214848 8 9 ack 40 ------- 5 10.4 9.0 14 49
- 1.214848 8 9 ack 40 ------- 5 10.4 9.0 14 49
r 1.216832 4 6 tcp 1040 ------- 2 3.0 10.1 2 37
+ 1.216832 6 8 tcp 1040 ------- 2 3.0 10.1 2 37
- 1.216832 6 8 tcp 1040 ------- 2 3.0 10.1 2 37
r 1.218272 8 9 ack 40 ------- 5 10.4 9.0 13 48
+ 1.218272 9 8 tcp 1040 ------- 5 9.0 10.4 27 66
- 1.218272 9 8 tcp 1040 ------- 5 9.0 10.4 27 66
+ 1.218272 9 8 tcp 1040 ------- 5 9.0 10.4 28 67
- 1.219936 9 8 tcp 1040 ------- 5 9.0 10.4 28 67
- 1.223296 8 10 tcp 1040 ------- 5 9.0 10.4 19 58
r 1.223296 9 8 tcp 1040 ------- 5 9.0 10.4 25 64
+ 1.223296 8 10 tcp 1040 ------- 5 9.0 10.4 25 64
r 1.22496 9 8 tcp 1040 ------- 5 9.0 10.4 26 65
+ 1.22496 8 10 tcp 1040 ------- 5 9.0 10.4 26 65
r 1.231488 10 8 ack 40 ------- 3 10.2 5.0 1 52
+ 1.231488 8 6 ack 40 ------- 3 10.2 5.0 1 52
- 1.231488 8 6 ack 40 ------- 3 10.2 5.0 1 52
r 1.234912 8 9 ack 40 ------- 5 10.4 9.0 14 49
+ 1.234912 9 8 tcp 1040 ------- 5 9.0 10.4 29 68
- 1.234912 9 8 tcp 1040 ------- 5 9.0 10.4 29 68
+ 1.234912 9 8 tcp 1040 ------- 5 9.0 10.4 30 69
- 1.236576 9 8 tcp 1040 ------- 5 9.0 10.4 30 69
- 1.239936 8 10 tcp 1040 ------- 5 9.0 10.4 20 59
r 1.239936 9 8 tcp 1040 ------- 5 9.0 10.4 27 66
+ 1.239936 8 10 tcp 1040 ------- 5 9.0 10.4 27 66
r 1.2416 9 8 tcp 1040 ------- 5 9.0 10.4 28 67
+ 1.2416 8 10 tcp 1040 ------- 5 9.0 10.4 28 67
r 1.248128 10 8 ack 40 ------- 3 10.2 5.0 2 57
+ 1.248128 8 6 ack 40 ------- 3 10.2 5.0 2 57
- 1.248128 8 6 ack 40 ------- 3 10.2 5.0 2 57
- 1.256576 8 10 tcp 1040 ------- 4 7.0 10.3 4 41
r 1.256576 9 8 tcp 1040 ------- 5 9.0 10.4 29 68
+ 1.256576 8 10 tcp 1040 ------- 5 9.0 10.4 29 68
r 1.256736 8 10 tcp 1040 ------- 5 9.0 10.4 15 50
+ 1.256736 10 8 ack 40 ------- 5 10.4 9.0 15 70
- 1.256736 10 8 ack 40 ------- 5 10.4 9.0 15 70
r 1.25824 9 8 tcp 1040 ------- 5 9.0 10.4 30 69
+ 1.25824 8 10 tcp 1040 ------- 5 9.0 10.4 30 69
- 1.273216 8 10 tcp 1040 ------- 5 9.0 10.4 21 60
r 1.273376 8 10 tcp 1040 ------- 5 9.0 10.4 16 51
+ 1.273376 10 8 ack 40 ------- 5 10.4 9.0 16 71
- 1.273376 10 8 ack 40 ------- 5 10.4 9.0 16 71
r 1.284832 0 2 tcp 1040 ------- 1 1.0 10.0 1 55
+ 1.284832 2 4 tcp 1040 ------- 1 1.0 10.0 1 55
- 1.284832 2 4 tcp 1040 ------- 1 1.0 10.0 1 55
- 1.289856 8 10 tcp 1040 ------- 5 9.0 10.4 22 61
r 1.290016 8 10 tcp 1040 ------- 5 9.0 10.4 17 53
+ 1.290016 10 8 ack 40 ------- 5 10.4 9.0 17 72
- 1.290016 10 8 ack 40 ------- 5 10.4 9.0 17 72
r 1.301472 0 2 tcp 1040 ------- 1 1.0 10.0 2 56
+ 1.301472 2 4 tcp 1040 ------- 1 1.0 10.0 2 56
- 1.301472 2 4 tcp 1040 ------- 1 1.0 10.0 2 56
- 1.306496 8 10 tcp 1040 ------- 4 7.0 10.3 5 43
r 1.306656 8 10 tcp 1040 ------- 5 9.0 10.4 18 54
+ 1.306656 10 8 ack 40 ------- 5 10.4 9.0 18 73
- 1.306656 10 8 ack 40 ------- 5 10.4 9.0 18 73
r 1.316832 6 8 tcp 1040 ------- 2 3.0 10.1 1 36
+ 1.316832 8 10 tcp 1040 ------- 2 3.0 10.1 1 36
- 1.323136 8 10 tcp 1040 ------- 5 9.0 10.4 23 62
r 1.323296 8 10 tcp 1040 ------- 4 7.0 10.3 3 40
+ 1.323296 10 8 ack 40 ------- 4 10.3 7.0 3 74
- 1.323296 10 8 ack 40 ------- 4 10.3 7.0 3 74
r 1.332128 8 6 ack 40 ------- 3 10.2 5.0 1 52
+ 1.332128 6 4 ack 40 ------- 3 10.2 5.0 1 52
- 1.332128 6 4 ack 40 ------- 3 10.2 5.0 1 52
r 1.333472 6 8 tcp 1040 ------- 2 3.0 10.1 2 37
+ 1.333472 8 10 tcp 1040 ------- 2 3.0 10.1 2 37
- 1.339776 8 10 tcp 1040 ------- 5 9.0 10.4 24 63
r 1.339936 8 10 tcp 1040 ------- 5 9.0 10.4 19 58
+ 1.339936 10 8 ack 40 ------- 5 10.4 9.0 19 75
- 1.339936 10 8 ack 40 ------- 5 10.4 9.0 19 75
r 1.348768 8 6 ack 40 ------- 3 10.2 5.0 2 57
+ 1.348768 6 4 ack 40 ------- 3 10.2 5.0 2 57
- 1.348768 6 4 ack 40 ------- 3 10.2 5.0 2 57
- 1.356416 8 10 tcp 1040 ------- 4 7.0 10.3 6 44
r 1.356576 8 10 tcp 1040 ------- 5 9.0 10.4 20 59
+ 1.356576 10 8 ack 40 ------- 5 10.4 9.0 20 76
- 1.356576 10 8 ack 40 ------- 5 10.4 9.0 20 76
r 1.357376 10 8 ack 40 ------- 5 10.4 9.0 15 70
+ 1.357376 8 9 ack 40 ------- 5 10.4 9.0 15 70
- 1.357376 8 9 ack 40 ------- 5 10.4 9.0 15 70
- 1.373056 8 10 tcp 1040 ------- 5 9.0 10.4 25 64
r 1.373216 8 10 tcp 1040 ------- 4 7.0 10.3 4 41
+ 1.373216 10 8 ack 40 ------- 4 10.3 7.0 4 77
- 1.373216 10 8 ack 40 ------- 4 10.3 7.0 4 77
r 1.374016 10 8 ack 40 ------- 5 10.4 9.0 16 71
+ 1.374016 8 9 ack 40 ------- 5 10.4 9.0 16 71
- 1.374016 8 9 ack 40 ------- 5 10.4 9.0 16 71
r 1.37744 8 9 ack 40 ------- 5 10.4 9.0 15 70
+ 1.37744 9 8 tcp 1040 ------- 5 9.0 10.4 31 78
- 1.37744 9 8 tcp 1040 ------- 5 9.0 10.4 31 78
+ 1.37744 9 8 tcp 1040 ------- 5 9.0 10.4 32 79
- 1.379104 9 8 tcp 1040 ------- 5 9.0 10.4 32 79
- 1.389696 8 10 tcp 1040 ------- 5 9.0 10.4 26 65
r 1.389856 8 10 tcp 1040 ------- 5 9.0 10.4 21 60
+ 1.389856 10 8 ack 40 ------- 5 10.4 9.0 21 80
- 1.389856 10 8 ack 40 ------- 5 10.4 9.0 21 80
r 1.390656 10 8 ack 40 ------- 5 10.4 9.0 17 72
+ 1.390656 8 9 ack 40 ------- 5 10.4 9.0 17 72
- 1.390656 8 9 ack 40 ------- 5 10.4 9.0 17 72
r 1.39408 8 9 ack 40 ------- 5 10.4 9.0 16 71
+ 1.39408 9 8 tcp 1040 ------- 5 9.0 10.4 33 81
- 1.39408 9 8 tcp 1040 ------- 5 9.0 10.4 33 81
+ 1.39408 9 8 tcp 1040 ------- 5 9.0 10.4 34 82
- 1.395744 9 8 tcp 1040 ------- 5 9.0 10.4 34 82
r 1.399104 9 8 tcp 1040 ------- 5 9.0 10.4 31 78
+ 1.399104 8 10 tcp 1040 ------- 5 9.0 10.4 31 78
r 1.400768 9 8 tcp 1040 ------- 5 9.0 10.4 32 79
+ 1.400768 8 10 tcp 1040 ------- 5 9.0 10.4 32 79
r 1.401472 2 4 tcp 1040 ------- 1 1.0 10.0 1 55
+ 1.401472 4 6 tcp 1040 ------- 1 1.0 10.0 1 55
- 1.401472 4 6 tcp 1040 ------- 1 1.0 10.0 1 55
- 1.406336 8 10 tcp 1040 ------- 5 9.0 10.4 27 66
r 1.406496 8 10 tcp 1040 ------- 5 9.0 10.4 22 61
+ 1.406496 10 8 ack 40 ------- 5 10.4 9.0 22 83
- 1.406496 10 8 ack 40 ------- 5 10.4 9.0 22 83
r 1.407296 10 8 ack 40 ------- 5 10.4 9.0 18 73
+ 1.407296 8 9 ack 40 ------- 5 10.4 9.0 18 73
- 1.407296 8 9 ack 40 ------- 5 10.4 9.0 18 73
r 1.41072 8 9 ack 40 ------- 5 10.4 9.0 17 72
+ 1.41072 9 8 tcp 1040 ------- 5 9.0 10.4 35 84
- 1.41072 9 8 tcp 1040 ------- 5 9.0 10.4 35 84
+ 1.41072 9 8 tcp 1040 ------- 5 9.0 10.4 36 85
- 1.412384 9 8 tcp 1040 ------- 5 9.0 10.4 36 85
r 1.415744 9 8 tcp 1040 ------- 5 9.0 10.4 33 81
+ 1.415744 8 10 tcp 1040 ------- 5 9.0 10.4 33 81
r 1.417408 9 8 tcp 1040 ------- 5 9.0 10.4 34 82
+ 1.417408 8 10 tcp 1040 ------- 5 9.0 10.4 34 82
r 1.418112 2 4 tcp 1040 ------- 1 1.0 10.0 2 56
+ 1.418112 4 6 tcp 1040 ------- 1 1.0 10.0 2 56
- 1.418112 4 6 tcp 1040 ------- 1 1.0 10.0 2 56
- 1.422976 8 10 tcp 1040 ------- 5 9.0 10.4 28 67
r 1.423136 8 10 tcp 1040 ------- 4 7.0 10.3 5 43
+ 1.423136 10 8 ack 40 ------- 4 10.3 7.0 5 86
- 1.423136 10 8 ack 40 ------- 4 10.3 7.0 5 86
r 1.423936 10 8 ack 40 ------- 4 10.3 7.0 3 74
+ 1.423936 8 6 ack 40 ------- 4 10.3 7.0 3 74
- 1.423936 8 6 ack 40 ------- 4 10.3 7.0 3 74
r 1.42736 8 9 ack 40 ------- 5 10.4 9.0 18 73
+ 1.42736 9 8 tcp 1040 ------- 5 9.0 10.4 37 87
- 1.42736 9 8 tcp 1040 ------- 5 9.0 10.4 37 87
+ 1.42736 9 8 tcp 1040 ------- 5 9.0 10.4 38 88
- 1.429024 9 8 tcp 1040 ------- 5 9.0 10.4 38 88
r 1.432384 9 8 tcp 1040 ------- 5 9.0 10.4 35 84
+ 1.432384 8 10 tcp 1040 ------- 5 9.0 10.4 35 84
r 1.432768 6 4 ack 40 ------- 3 10.2 5.0 1 52
+ 1.432768 4 5 ack 40 ------- 3 10.2 5.0 1 52
- 1.432768 4 5 ack 40 ------- 3 10.2 5.0 1 52
r 1.434048 9 8 tcp 1040 ------- 5 9.0 10.4 36 85
+ 1.434048 8 10 tcp 1040 ------- 5 9.0 10.4 36 85
- 1.439616 8 10 tcp 1040 ------- 5 9.0 10.4 29 68
r 1.439776 8 10 tcp 1040 ------- 5 9.0 10.4 23 62
+ 1.439776 10 8 ack 40 ------- 5 10.4 9.0 23 89
- 1.439776 10 8 ack 40 ------- 5 10.4 9.0 23 89
r 1.440576 10 8 ack 40 ------- 5 10.4 9.0 19 75
+ 1.440576 8 9 ack 40 ------- 5 10.4 9.0 19 75
- 1.440576 8 9 ack 40 ------- 5 10.4 9.0 19 75
r 1.449024 9 8 tcp 1040 ------- 5 9.0 10.4 37 87
+ 1.449024 8 10 tcp 1040 ------- 5 9.0 10.4 37 87
r 1.449408 6 4 ack 40 ------- 3 10.2 5.0 2 57
+ 1.449408 4 5 ack 40 ------- 3 10.2 5.0 2 57
- 1.449408 4 5 ack 40 ------- 3 10.2 5.0 2 57
r 1.450688 9 8 tcp 1040 ------- 5 9.0 10.4 38 88
+ 1.450688 8 10 tcp 1040 ------- 5 9.0 10.4 38 88
r 1.452832 4 5 ack 40 ------- 3 10.2 5.0 1 52
+ 1.452832 5 4 tcp 1040 ------- 3 5.0 10.2 3 90
- 1.452832 5 4 tcp 1040 ------- 3 5.0 10.2 3 90
+ 1.452832 5 4 tcp 1040 ------- 3 5.0 10.2 4 91
- 1.454496 5 4 tcp 1040 ------- 3 5.0 10.2 4 91
- 1.456256 8 10 tcp 1040 ------- 5 9.0 10.4 30 69
r 1.456416 8 10 tcp 1040 ------- 5 9.0 10.4 24 63
+ 1.456416 10 8 ack 40 ------- 5 10.4 9.0 24 92
- 1.456416 10 8 ack 40 ------- 5 10.4 9.0 24 92
r 1.457216 10 8 ack 40 ------- 5 10.4 9.0 20 76
+ 1.457216 8 9 ack 40 ------- 5 10.4 9.0 20 76
- 1.457216 8 9 ack 40 ------- 5 10.4 9.0 20 76
r 1.46064 8 9 ack 40 ------- 5 10.4 9.0 19 75
+ 1.46064 9 8 tcp 1040 ------- 5 9.0 10.4 39 93