+ 0.1 1 0 tcp 40 ------- 1 1.0 10.0 0 0
- 0.1 1 0 tcp 40 ------- 1 1.0 10.0 0 0
+ 0.1 3 2 tcp 40 ------- 2 3.0 10.1 0 1
- 0.1 3 2 tcp 40 ------- 2 3.0 10.1 0 1
+ 0.1 5 4 tcp 40 ------- 3 5.0 10.2 0 2
- 0.1 5 4 tcp 40 ------- 3 5.0 10.2 0 2
+ 0.1 7 6 tcp 40 ------- 4 7.0 10.3 0 3
- 0.1 7 6 tcp 40 ------- 4 7.0 10.3 0 3
+ 0.1 9 8 tcp 40 ------- 5 9.0 10.4 0 4
- 0.1 9 8 tcp 40 ------- 5 9.0 10.4 0 4
r 0.120064 1 0 tcp 40 ------- 1 1.0 10.0 0 0
+ 0.120064 0 2 tcp 40 ------- 1 1.0 10.0 0 0
- 0.120064 0 2 tcp 40 ------- 1 1.0 10.0 0 0
r 0.120064 3 2 tcp 40 ------- 2 3.0 10.1 0 1
+ 0.120064 2 4 tcp 40 ------- 2 3.0 10.1 0 1
- 0.120064 2 4 tcp 40 ------- 2 3.0 10.1 0 1
r 0.120064 5 4 tcp 40 ------- 3 5.0 10.2 0 2
+ 0.120064 4 6 tcp 40 ------- 3 5.0 10.2 0 2
- 0.120064 4 6 tcp 40 ------- 3 5.0 10.2 0 2
r 0.120064 7 6 tcp 40 ------- 4 7.0 10.3 0 3
+ 0.120064 6 8 tcp 40 ------- 4 7.0 10.3 0 3
- 0.120064 6 8 tcp 40 ------- 4 7.0 10.3 0 3
r 0.120064 9 8 tcp 40 ------- 5 9.0 10.4 0 4
+ 0.120064 8 10 tcp 40 ------- 5 9.0 10.4 0 4
- 0.120064 8 10 tcp 40 ------- 5 9.0 10.4 0 4
r 0.220704 0 2 tcp 40 ------- 1 1.0 10.0 0 0
+ 0.220704 2 4 tcp 40 ------- 1 1.0 10.0 0 0
- 0.220704 2 4 tcp 40 ------- 1 1.0 10.0 0 0
r 0.220704 2 4 tcp 40 ------- 2 3.0 10.1 0 1
+ 0.220704 4 6 tcp 40 ------- 2 3.0 10.1 0 1
- 0.220704 4 6 tcp 40 ------- 2 3.0 10.1 0 1
r 0.220704 4 6 tcp 40 ------- 3 5.0 10.2 0 2
+ 0.220704 6 8 tcp 40 ------- 3 5.0 10.2 0 2
- 0.220704 6 8 tcp 40 ------- 3 5.0 10.2 0 2
r 0.220704 6 8 tcp 40 ------- 4 7.0 10.3 0 3
+ 0.220704 8 10 tcp 40 ------- 4 7.0 10.3 0 3
- 0.220704 8 10 tcp 40 ------- 4 7.0 10.3 0 3
r 0.220704 8 10 tcp 40 ------- 5 9.0 10.4 0 4
+ 0.220704 10 8 ack 40 ------- 5 10.4 9.0 0 5
- 0.220704 10 8 ack 40 ------- 5 10.4 9.0 0 5
r 0.321344 2 4 tcp 40 ------- 1 1.0 10.0 0 0
+ 0.321344 4 6 tcp 40 ------- 1 1.0 10.0 0 0
- 0.321344 4 6 tcp 40 ------- 1 1.0 10.0 0 0
r 0.321344 4 6 tcp 40 ------- 2 3.0 10.1 0 1
+ 0.321344 6 8 tcp 40 ------- 2 3.0 10.1 0 1
- 0.321344 6 8 tcp 40 ------- 2 3.0 10.1 0 1
r 0.321344 6 8 tcp 40 ------- 3 5.0 10.2 0 2
+ 0.321344 8 10 tcp 40 ------- 3 5.0 10.2 0 2
- 0.321344 8 10 tcp 40 ------- 3 5.0 10.2 0 2
r 0.321344 8 10 tcp 40 ------- 4 7.0 10.3 0 3
+ 0.321344 10 8 ack 40 ------- 4 10.3 7.0 0 6
- 0.321344 10 8 ack 40 ------- 4 10.3 7.0 0 6
r 0.321344 10 8 ack 40 ------- 5 10.4 9.0 0 5
+ 0.321344 8 9 ack 40 ------- 5 10.4 9.0 0 5
- 0.321344 8 9 ack 40 ------- 5 10.4 9.0 0 5
r 0.341408 8 9 ack 40 ------- 5 10.4 9.0 0 5
+ 0.341408 9 8 tcp 1040 ------- 5 9.0 10.4 1 7
- 0.341408 9 8 tcp 1040 ------- 5 9.0 10.4 1 7
+ 0.341408 9 8 tcp 1040 ------- 5 9.0 10.4 2 8
- 0.343072 9 8 tcp 1040 ------- 5 9.0 10.4 2 8
r 0.363072 9 8 tcp 1040 ------- 5 9.0 10.4 1 7
+ 0.363072 8 10 tcp 1040 ------- 5 9.0 10.4 1 7
- 0.363072 8 10 tcp 1040 ------- 5 9.0 10.4 1 7
r 0.364736 9 8 tcp 1040 ------- 5 9.0 10.4 2 8
+ 0.364736 8 10 tcp 1040 ------- 5 9.0 10.4 2 8
- 0.379712 8 10 tcp 1040 ------- 5 9.0 10.4 2 8
r 0.421984 4 6 tcp 40 ------- 1 1.0 10.0 0 0
+ 0.421984 6 8 tcp 40 ------- 1 1.0 10.0 0 0
- 0.421984 6 8 tcp 40 ------- 1 1.0 10.0 0 0
r 0.421984 6 8 tcp 40 ------- 2 3.0 10.1 0 1
+ 0.421984 8 10 tcp 40 ------- 2 3.0 10.1 0 1
- 0.421984 8 10 tcp 40 ------- 2 3.0 10.1 0 1
r 0.421984 8 10 tcp 40 ------- 3 5.0 10.2 0 2
+ 0.421984 10 8 ack 40 ------- 3 10.2 5.0 0 9
- 0.421984 10 8 ack 40 ------- 3 10.2 5.0 0 9
r 0.421984 10 8 ack 40 ------- 4 10.3 7.0 0 6
+ 0.421984 8 6 ack 40 ------- 4 10.3 7.0 0 6
- 0.421984 8 6 ack 40 ------- 4 10.3 7.0 0 6
r 0.479712 8 10 tcp 1040 ------- 5 9.0 10.4 1 7
r 0.496352 8 10 tcp 1040 ------- 5 9.0 10.4 2 8
+ 0.496352 10 8 ack 40 ------- 5 10.4 9.0 2 10
- 0.496352 10 8 ack 40 ------- 5 10.4 9.0 2 10
r 0.522624 6 8 tcp 40 ------- 1 1.0 10.0 0 0
+ 0.522624 8 10 tcp 40 ------- 1 1.0 10.0 0 0
- 0.522624 8 10 tcp 40 ------- 1 1.0 10.0 0 0
r 0.522624 8 10 tcp 40 ------- 2 3.0 10.1 0 1
+ 0.522624 10 8 ack 40 ------- 2 10.1 3.0 0 11
- 0.522624 10 8 ack 40 ------- 2 10.1 3.0 0 11
r 0.522624 10 8 ack 40 ------- 3 10.2 5.0 0 9
+ 0.522624 8 6 ack 40 ------- 3 10.2 5.0 0 9
- 0.522624 8 6 ack 40 ------- 3 10.2 5.0 0 9
r 0.522624 8 6 ack 40 ------- 4 10.3 7.0 0 6
+ 0.522624 6 7 ack 40 ------- 4 10.3 7.0 0 6
- 0.522624 6 7 ack 40 ------- 4 10.3 7.0 0 6
r 0.542688 6 7 ack 40 ------- 4 10.3 7.0 0 6
+ 0.542688 7 6 tcp 1040 ------- 4 7.0 10.3 1 12
- 0.542688 7 6 tcp 1040 ------- 4 7.0 10.3 1 12
+ 0.542688 7 6 tcp 1040 ------- 4 7.0 10.3 2 13
- 0.544352 7 6 tcp 1040 ------- 4 7.0 10.3 2 13
r 0.564352 7 6 tcp 1040 ------- 4 7.0 10.3 1 12
+ 0.564352 6 8 tcp 1040 ------- 4 7.0 10.3 1 12
- 0.564352 6 8 tcp 1040 ------- 4 7.0 10.3 1 12
r 0.566016 7 6 tcp 1040 ------- 4 7.0 10.3 2 13
+ 0.566016 6 8 tcp 1040 ------- 4 7.0 10.3 2 13
- 0.580992 6 8 tcp 1040 ------- 4 7.0 10.3 2 13
r 0.596992 10 8 ack 40 ------- 5 10.4 9.0 2 10
+ 0.596992 8 9 ack 40 ------- 5 10.4 9.0 2 10
- 0.596992 8 9 ack 40 ------- 5 10.4 9.0 2 10
r 0.617056 8 9 ack 40 ------- 5 10.4 9.0 2 10
+ 0.617056 9 8 tcp 1040 ------- 5 9.0 10.4 3 14
- 0.617056 9 8 tcp 1040 ------- 5 9.0 10.4 3 14
+ 0.617056 9 8 tcp 1040 ------- 5 9.0 10.4 4 15
+ 0.617056 9 8 tcp 1040 ------- 5 9.0 10.4 5 16
- 0.61872 9 8 tcp 1040 ------- 5 9.0 10.4 4 15
- 0.620384 9 8 tcp 1040 ------- 5 9.0 10.4 5 16
r 0.623264 8 10 tcp 40 ------- 1 1.0 10.0 0 0
+ 0.623264 10 8 ack 40 ------- 1 10.0 1.0 0 17
- 0.623264 10 8 ack 40 ------- 1 10.0 1.0 0 17
r 0.623264 10 8 ack 40 ------- 2 10.1 3.0 0 11
+ 0.623264 8 6 ack 40 ------- 2 10.1 3.0 0 11
- 0.623264 8 6 ack 40 ------- 2 10.1 3.0 0 11
r 0.623264 8 6 ack 40 ------- 3 10.2 5.0 0 9
+ 0.623264 6 4 ack 40 ------- 3 10.2 5.0 0 9
- 0.623264 6 4 ack 40 ------- 3 10.2 5.0 0 9
r 0.63872 9 8 tcp 1040 ------- 5 9.0 10.4 3 14
+ 0.63872 8 10 tcp 1040 ------- 5 9.0 10.4 3 14
- 0.63872 8 10 tcp 1040 ------- 5 9.0 10.4 3 14
r 0.640384 9 8 tcp 1040 ------- 5 9.0 10.4 4 15
+ 0.640384 8 10 tcp 1040 ------- 5 9.0 10.4 4 15
r 0.642048 9 8 tcp 1040 ------- 5 9.0 10.4 5 16
+ 0.642048 8 10 tcp 1040 ------- 5 9.0 10.4 5 16
- 0.65536 8 10 tcp 1040 ------- 5 9.0 10.4 4 15
- 0.672 8 10 tcp 1040 ------- 5 9.0 10.4 5 16
r 0.680992 6 8 tcp 1040 ------- 4 7.0 10.3 1 12
+ 0.680992 8 10 tcp 1040 ------- 4 7.0 10.3 1 12
- 0.68864 8 10 tcp 1040 ------- 4 7.0 10.3 1 12
r 0.697632 6 8 tcp 1040 ------- 4 7.0 10.3 2 13
+ 0.697632 8 10 tcp 1040 ------- 4 7.0 10.3 2 13
- 0.70528 8 10 tcp 1040 ------- 4 7.0 10.3 2 13
r 0.723904 10 8 ack 40 ------- 1 10.0 1.0 0 17
+ 0.723904 8 6 ack 40 ------- 1 10.0 1.0 0 17
- 0.723904 8 6 ack 40 ------- 1 10.0 1.0 0 17
r 0.723904 8 6 ack 40 ------- 2 10.1 3.0 0 11
+ 0.723904 6 4 ack 40 ------- 2 10.1 3.0 0 11
- 0.723904 6 4 ack 40 ------- 2 10.1 3.0 0 11
r 0.723904 6 4 ack 40 ------- 3 10.2 5.0 0 9
+ 0.723904 4 5 ack 40 ------- 3 10.2 5.0 0 9
- 0.723904 4 5 ack 40 ------- 3 10.2 5.0 0 9
r 0.743968 4 5 ack 40 ------- 3 10.2 5.0 0 9
+ 0.743968 5 4 tcp 1040 ------- 3 5.0 10.2 1 18
- 0.743968 5 4 tcp 1040 ------- 3 5.0 10.2 1 18
+ 0.743968 5 4 tcp 1040 ------- 3 5.0 10.2 2 19
- 0.745632 5 4 tcp 1040 ------- 3 5.0 10.2 2 19
r 0.75536 8 10 tcp 1040 ------- 5 9.0 10.4 3 14
r 0.765632 5 4 tcp 1040 ------- 3 5.0 10.2 1 18
+ 0.765632 4 6 tcp 1040 ------- 3 5.0 10.2 1 18
- 0.765632 4 6 tcp 1040 ------- 3 5.0 10.2 1 18
r 0.767296 5 4 tcp 1040 ------- 3 5.0 10.2 2 19
+ 0.767296 4 6 tcp 1040 ------- 3 5.0 10.2 2 19
r 0.772 8 10 tcp 1040 ------- 5 9.0 10.4 4 15
+ 0.772 10 8 ack 40 ------- 5 10.4 9.0 4 20
- 0.772 10 8 ack 40 ------- 5 10.4 9.0 4 20
- 0.782272 4 6 tcp 1040 ------- 3 5.0 10.2 2 19
r 0.78864 8 10 tcp 1040 ------- 5 9.0 10.4 5 16
r 0.80528 8 10 tcp 1040 ------- 4 7.0 10.3 1 12
r 0.82192 8 10 tcp 1040 ------- 4 7.0 10.3 2 13
+ 0.82192 10 8 ack 40 ------- 4 10.3 7.0 2 21
- 0.82192 10 8 ack 40 ------- 4 10.3 7.0 2 21
r 0.824544 8 6 ack 40 ------- 1 10.0 1.0 0 17
+ 0.824544 6 4 ack 40 ------- 1 10.0 1.0 0 17
- 0.824544 6 4 ack 40 ------- 1 10.0 1.0 0 17
r 0.824544 6 4 ack 40 ------- 2 10.1 3.0 0 11
+ 0.824544 4 2 ack 40 ------- 2 10.1 3.0 0 11
- 0.824544 4 2 ack 40 ------- 2 10.1 3.0 0 11
r 0.87264 10 8 ack 40 ------- 5 10.4 9.0 4 20
+ 0.87264 8 9 ack 40 ------- 5 10.4 9.0 4 20
- 0.87264 8 9 ack 40 ------- 5 10.4 9.0 4 20
r 0.882272 4 6 tcp 1040 ------- 3 5.0 10.2 1 18
+ 0.882272 6 8 tcp 1040 ------- 3 5.0 10.2 1 18
- 0.882272 6 8 tcp 1040 ------- 3 5.0 10.2 1 18
+ 0.88864 10 8 ack 40 ------- 5 10.4 9.0 5 22
- 0.88864 10 8 ack 40 ------- 5 10.4 9.0 5 22
r 0.892704 8 9 ack 40 ------- 5 10.4 9.0 4 20
+ 0.892704 9 8 tcp 1040 ------- 5 9.0 10.4 6 23
- 0.892704 9 8 tcp 1040 ------- 5 9.0 10.4 6 23
+ 0.892704 9 8 tcp 1040 ------- 5 9.0 10.4 7 24
+ 0.892704 9 8 tcp 1040 ------- 5 9.0 10.4 8 25
- 0.894368 9 8 tcp 1040 ------- 5 9.0 10.4 7 24
- 0.896032 9 8 tcp 1040 ------- 5 9.0 10.4 8 25
r 0.898912 4 6 tcp 1040 ------- 3 5.0 10.2 2 19
+ 0.898912 6 8 tcp 1040 ------- 3 5.0 10.2 2 19
- 0.898912 6 8 tcp 1040 ------- 3 5.0 10.2 2 19
r 0.914368 9 8 tcp 1040 ------- 5 9.0 10.4 6 23
+ 0.914368 8 10 tcp 1040 ------- 5 9.0 10.4 6 23
- 0.914368 8 10 tcp 1040 ------- 5 9.0 10.4 6 23
r 0.916032 9 8 tcp 1040 ------- 5 9.0 10.4 7 24
+ 0.916032 8 10 tcp 1040 ------- 5 9.0 10.4 7 24
r 0.917696 9 8 tcp 1040 ------- 5 9.0 10.4 8 25
+ 0.917696 8 10 tcp 1040 ------- 5 9.0 10.4 8 25
r 0.92256 10 8 ack 40 ------- 4 10.3 7.0 2 21
+ 0.92256 8 6 ack 40 ------- 4 10.3 7.0 2 21
- 0.92256 8 6 ack 40 ------- 4 10.3 7.0 2 21
r 0.925184 6 4 ack 40 ------- 1 10.0 1.0 0 17
+ 0.925184 4 2 ack 40 ------- 1 10.0 1.0 0 17
- 0.925184 4 2 ack 40 ------- 1 10.0 1.0 0 17
r 0.925184 4 2 ack 40 ------- 2 10.1 3.0 0 11
+ 0.925184 2 3 ack 40 ------- 2 10.1 3.0 0 11
- 0.925184 2 3 ack 40 ------- 2 10.1 3.0 0 11
- 0.931008 8 10 tcp 1040 ------- 5 9.0 10.4 7 24
r 0.945248 2 3 ack 40 ------- 2 10.1 3.0 0 11
+ 0.945248 3 2 tcp 1040 ------- 2 3.0 10.1 1 26
- 0.945248 3 2 tcp 1040 ------- 2 3.0 10.1 1 26
+ 0.945248 3 2 tcp 1040 ------- 2 3.0 10.1 2 27
- 0.946912 3 2 tcp 1040 ------- 2 3.0 10.1 2 27
- 0.947648 8 10 tcp 1040 ------- 5 9.0 10.4 8 25
r 0.966912 3 2 tcp 1040 ------- 2 3.0 10.1 1 26
+ 0.966912 2 4 tcp 1040 ------- 2 3.0 10.1 1 26
- 0.966912 2 4 tcp 1040 ------- 2 3.0 10.1 1 26
r 0.968576 3 2 tcp 1040 ------- 2 3.0 10.1 2 27
+ 0.968576 2 4 tcp 1040 ------- 2 3.0 10.1 2 27
- 0.983552 2 4 tcp 1040 ------- 2 3.0 10.1 2 27
r 0.98928 10 8 ack 40 ------- 5 10.4 9.0 5 22
+ 0.98928 8 9 ack 40 ------- 5 10.4 9.0 5 22
- 0.98928 8 9 ack 40 ------- 5 10.4 9.0 5 22
r 0.998912 6 8 tcp 1040 ------- 3 5.0 10.2 1 18
+ 0.998912 8 10 tcp 1040 ------- 3 5.0 10.2 1 18
- 0.998912 8 10 tcp 1040 ------- 3 5.0 10.2 1 18
r 1.009344 8 9 ack 40 ------- 5 10.4 9.0 5 22
+ 1.009344 9 8 tcp 1040 ------- 5 9.0 10.4 9 28
- 1.009344 9 8 tcp 1040 ------- 5 9.0 10.4 9 28
+ 1.009344 9 8 tcp 1040 ------- 5 9.0 10.4 10 29
- 1.011008 9 8 tcp 1040 ------- 5 9.0 10.4 10 29
r 1.015552 6 8 tcp 1040 ------- 3 5.0 10.2 2 19
+ 1.015552 8 10 tcp 1040 ------- 3 5.0 10.2 2 19
- 1.015552 8 10 tcp 1040 ------- 3 5.0 10.2 2 19
r 1.0232 8 6 ack 40 ------- 4 10.3 7.0 2 21
+ 1.0232 6 7 ack 40 ------- 4 10.3 7.0 2 21
- 1.0232 6 7 ack 40 ------- 4 10.3 7.0 2 21
r 1.025824 4 2 ack 40 ------- 1 10.0 1.0 0 17
+ 1.025824 2 0 ack 40 ------- 1 10.0 1.0 0 17
- 1.025824 2 0 ack 40 ------- 1 10.0 1.0 0 17
r 1.031008 9 8 tcp 1040 ------- 5 9.0 10.4 9 28
+ 1.031008 8 10 tcp 1040 ------- 5 9.0 10.4 9 28
r 1.031008 8 10 tcp 1040 ------- 5 9.0 10.4 6 23
- 1.032192 8 10 tcp 1040 ------- 5 9.0 10.4 9 28
r 1.032672 9 8 tcp 1040 ------- 5 9.0 10.4 10 29
+ 1.032672 8 10 tcp 1040 ------- 5 9.0 10.4 10 29
r 1.043264 6 7 ack 40 ------- 4 10.3 7.0 2 21
+ 1.043264 7 6 tcp 1040 ------- 4 7.0 10.3 3 30
- 1.043264 7 6 tcp 1040 ------- 4 7.0 10.3 3 30
+ 1.043264 7 6 tcp 1040 ------- 4 7.0 10.3 4 31
+ 1.043264 7 6 tcp 1040 ------- 4 7.0 10.3 5 32
- 1.044928 7 6 tcp 1040 ------- 4 7.0 10.3 4 31
- 1.046592 7 6 tcp 1040 ------- 4 7.0 10.3 5 32
r 1.047648 8 10 tcp 1040 ------- 5 9.0 10.4 7 24
+ 1.047648 10 8 ack 40 ------- 5 10.4 9.0 7 33
- 1.047648 10 8 ack 40 ------- 5 10.4 9.0 7 33
- 1.048832 8 10 tcp 1040 ------- 5 9.0 10.4 10 29
r 1.064288 8 10 tcp 1040 ------- 5 9.0 10.4 8 25
r 1.064928 7 6 tcp 1040 ------- 4 7.0 10.3 3 30
+ 1.064928 6 8 tcp 1040 ------- 4 7.0 10.3 3 30
- 1.064928 6 8 tcp 1040 ------- 4 7.0 10.3 3 30
r 1.066592 7 6 tcp 1040 ------- 4 7.0 10.3 4 31
+ 1.066592 6 8 tcp 1040 ------- 4 7.0 10.3 4 31
r 1.068256 7 6 tcp 1040 ------- 4 7.0 10.3 5 32
+ 1.068256 6 8 tcp 1040 ------- 4 7.0 10.3 5 32
- 1.081568 6 8 tcp 1040 ------- 4 7.0 10.3 4 31
r 1.083552 2 4 tcp 1040 ------- 2 3.0 10.1 1 26
+ 1.083552 4 6 tcp 1040 ------- 2 3.0 10.1 1 26
- 1.083552 4 6 tcp 1040 ------- 2 3.0 10.1 1 26
- 1.098208 6 8 tcp 1040 ------- 4 7.0 10.3 5 32
r 1.100192 2 4 tcp 1040 ------- 2 3.0 10.1 2 27
+ 1.100192 4 6 tcp 1040 ------- 2 3.0 10.1 2 27
- 1.100192 4 6 tcp 1040 ------- 2 3.0 10.1 2 27
r 1.115552 8 10 tcp 1040 ------- 3 5.0 10.2 1 18
r 1.126464 2 0 ack 40 ------- 1 10.0 1.0 0 17
+ 1.126464 0 1 ack 40 ------- 1 10.0 1.0 0 17
- 1.126464 0 1 ack 40 ------- 1 10.0 1.0 0 17
r 1.132192 8 10 tcp 1040 ------- 3 5.0 10.2 2 19
+ 1.132192 10 8 ack 40 ------- 3 10.2 5.0 2 34
- 1.132192 10 8 ack 40 ------- 3 10.2 5.0 2 34
r 1.146528 0 1 ack 40 ------- 1 10.0 1.0 0 17
+ 1.146528 1 0 tcp 1040 ------- 1 1.0 10.0 1 35
- 1.146528 1 0 tcp 1040 ------- 1 1.0 10.0 1 35
+ 1.146528 1 0 tcp 1040 ------- 1 1.0 10.0 2 36
- 1.148192 1 0 tcp 1040 ------- 1 1.0 10.0 2 36
r 1.148288 10 8 ack 40 ------- 5 10.4 9.0 7 33
+ 1.148288 8 9 ack 40 ------- 5 10.4 9.0 7 33
- 1.148288 8 9 ack 40 ------- 5 10.4 9.0 7 33
r 1.148832 8 10 tcp 1040 ------- 5 9.0 10.4 9 28
+ 1.148832 10 8 ack 40 ------- 5 10.4 9.0 9 37
- 1.148832 10 8 ack 40 ------- 5 10.4 9.0 9 37
r 1.165472 8 10 tcp 1040 ------- 5 9.0 10.4 10 29
r 1.168192 1 0 tcp 1040 ------- 1 1.0 10.0 1 35
+ 1.168192 0 2 tcp 1040 ------- 1 1.0 10.0 1 35
- 1.168192 0 2 tcp 1040 ------- 1 1.0 10.0 1 35
r 1.168352 8 9 ack 40 ------- 5 10.4 9.0 7 33
+ 1.168352 9 8 tcp 1040 ------- 5 9.0 10.4 11 38
- 1.168352 9 8 tcp 1040 ------- 5 9.0 10.4 11 38
+ 1.168352 9 8 tcp 1040 ------- 5 9.0 10.4 12 39
+ 1.168352 9 8 tcp 1040 ------- 5 9.0 10.4 13 40
r 1.169856 1 0 tcp 1040 ------- 1 1.0 10.0 2 36
+ 1.169856 0 2 tcp 1040 ------- 1 1.0 10.0 2 36
- 1.170016 9 8 tcp 1040 ------- 5 9.0 10.4 12 39
- 1.17168 9 8 tcp 1040 ------- 5 9.0 10.4 13 40
r 1.181568 6 8 tcp 1040 ------- 4 7.0 10.3 3 30
+ 1.181568 8 10 tcp 1040 ------- 4 7.0 10.3 3 30
- 1.181568 8 10 tcp 1040 ------- 4 7.0 10.3 3 30
- 1.184832 0 2 tcp 1040 ------- 1 1.0 10.0 2 36
r 1.190016 9 8 tcp 1040 ------- 5 9.0 10.4 11 38
+ 1.190016 8 10 tcp 1040 ------- 5 9.0 10.4 11 38
r 1.19168 9 8 tcp 1040 ------- 5 9.0 10.4 12 39
+ 1.19168 8 10 tcp 1040 ------- 5 9.0 10.4 12 39
r 1.193344 9 8 tcp 1040 ------- 5 9.0 10.4 13 40
+ 1.193344 8 10 tcp 1040 ------- 5 9.0 10.4 13 40
r 1.198208 6 8 tcp 1040 ------- 4 7.0 10.3 4 31
+ 1.198208 8 10 tcp 1040 ------- 4 7.0 10.3 4 31
- 1.198208 8 10 tcp 1040 ------- 5 9.0 10.4 11 38
r 1.200192 4 6 tcp 1040 ------- 2 3.0 10.1 1 26
+ 1.200192 6 8 tcp 1040 ------- 2 3.0 10.1 1 26
- 1.200192 6 8 tcp 1040 ------- 2 3.0 10.1 1 26
r 1.214848 6 8 tcp 1040 ------- 4 7.0 10.3 5 32
+ 1.214848 8 10 tcp 1040 ------- 4 7.0 10.3 5 32
- 1.214848 8 10 tcp 1040 ------- 4 7.0 10.3 4 31
r 1.216832 4 6 tcp 1040 ------- 2 3.0 10.1 2 27
+ 1.216832 6 8 tcp 1040 ------- 2 3.0 10.1 2 27
- 1.216832 6 8 tcp 1040 ------- 2 3.0 10.1 2 27
- 1.231488 8 10 tcp 1040 ------- 5 9.0 10.4 12 39
r 1.232832 10 8 ack 40 ------- 3 10.2 5.0 2 34
+ 1.232832 8 6 ack 40 ------- 3 10.2 5.0 2 34
- 1.232832 8 6 ack 40 ------- 3 10.2 5.0 2 34
- 1.248128 8 10 tcp 1040 ------- 4 7.0 10.3 5 32
r 1.249472 10 8 ack 40 ------- 5 10.4 9.0 9 37
+ 1.249472 8 9 ack 40 ------- 5 10.4 9.0 9 37
- 1.249472 8 9 ack 40 ------- 5 10.4 9.0 9 37
- 1.264768 8 10 tcp 1040 ------- 5 9.0 10.4 13 40
+ 1.265472 10 8 ack 40 ------- 5 10.4 9.0 10 41
- 1.265472 10 8 ack 40 ------- 5 10.4 9.0 10 41
r 1.269536 8 9 ack 40 ------- 5 10.4 9.0 9 37
+ 1.269536 9 8 tcp 1040 ------- 5 9.0 10.4 14 42
- 1.269536 9 8 tcp 1040 ------- 5 9.0 10.4 14 42
+ 1.269536 9 8 tcp 1040 ------- 5 9.0 10.4 15 43
+ 1.269536 9 8 tcp 1040 ------- 5 9.0 10.4 16 44
- 1.2712 9 8 tcp 1040 ------- 5 9.0 10.4 15 43
- 1.272864 9 8 tcp 1040 ------- 5 9.0 10.4 16 44
r 1.284832 0 2 tcp 1040 ------- 1 1.0 10.0 1 35
+ 1.284832 2 4 tcp 1040 ------- 1 1.0 10.0 1 35
- 1.284832 2 4 tcp 1040 ------- 1 1.0 10.0 1 35
r 1.2912 9 8 tcp 1040 ------- 5 9.0 10.4 14 42
+ 1.2912 8 10 tcp 1040 ------- 5 9.0 10.4 14 42
- 1.2912 8 10 tcp 1040 ------- 5 9.0 10.4 14 42
r 1.292864 9 8 tcp 1040 ------- 5 9.0 10.4 15 43
+ 1.292864 8 10 tcp 1040 ------- 5 9.0 10.4 15 43
r 1.294528 9 8 tcp 1040 ------- 5 9.0 10.4 16 44
+ 1.294528 8 10 tcp 1040 ------- 5 9.0 10.4 16 44
r 1.298208 8 10 tcp 1040 ------- 4 7.0 10.3 3 30
r 1.301472 0 2 tcp 1040 ------- 1 1.0 10.0 2 36
+ 1.301472 2 4 tcp 1040 ------- 1 1.0 10.0 2 36
- 1.301472 2 4 tcp 1040 ------- 1 1.0 10.0 2 36
- 1.30784 8 10 tcp 1040 ------- 5 9.0 10.4 15 43
r 1.314848 8 10 tcp 1040 ------- 5 9.0 10.4 11 38
r 1.316832 6 8 tcp 1040 ------- 2 3.0 10.1 1 26
+ 1.316832 8 10 tcp 1040 ------- 2 3.0 10.1 1 26
- 1.32448 8 10 tcp 1040 ------- 5 9.0 10.4 16 44
r 1.331488 8 10 tcp 1040 ------- 4 7.0 10.3 4 31
+ 1.331488 10 8 ack 40 ------- 4 10.3 7.0 4 45
- 1.331488 10 8 ack 40 ------- 4 10.3 7.0 4 45
r 1.333472 8 6 ack 40 ------- 3 10.2 5.0 2 34
+ 1.333472 6 4 ack 40 ------- 3 10.2 5.0 2 34
- 1.333472 6 4 ack 40 ------- 3 10.2 5.0 2 34
r 1.333472 6 8 tcp 1040 ------- 2 3.0 10.1 2 27
+ 1.333472 8 10 tcp 1040 ------- 2 3.0 10.1 2 27
- 1.34112 8 10 tcp 1040 ------- 2 3.0 10.1 1 26
r 1.348128 8 10 tcp 1040 ------- 5 9.0 10.4 12 39
+ 1.348128 10 8 ack 40 ------- 5 10.4 9.0 12 46
- 1.348128 10 8 ack 40 ------- 5 10.4 9.0 12 46
- 1.35776 8 10 tcp 1040 ------- 2 3.0 10.1 2 27
r 1.364768 8 10 tcp 1040 ------- 4 7.0 10.3 5 32
r 1.366112 10 8 ack 40 ------- 5 10.4 9.0 10 41
+ 1.366112 8 9 ack 40 ------- 5 10.4 9.0 10 41
- 1.366112 8 9 ack 40 ------- 5 10.4 9.0 10 41
r 1.381408 8 10 tcp 1040 ------- 5 9.0 10.4 13 40
r 1.386176 8 9 ack 40 ------- 5 10.4 9.0 10 41
+ 1.386176 9 8 tcp 1040 ------- 5 9.0 10.4 17 47
- 1.386176 9 8 tcp 1040 ------- 5 9.0 10.4 17 47
+ 1.386176 9 8 tcp 1040 ------- 5 9.0 10.4 18 48
- 1.38784 9 8 tcp 1040 ------- 5 9.0 10.4 18 48
r 1.401472 2 4 tcp 1040 ------- 1 1.0 10.0 1 35
+ 1.401472 4 6 tcp 1040 ------- 1 1.0 10.0 1 35
- 1.401472 4 6 tcp 1040 ------- 1 1.0 10.0 1 35
r 1.40784 8 10 tcp 1040 ------- 5 9.0 10.4 14 42
+ 1.40784 10 8 ack 40 ------- 5 10.4 9.0 14 49
- 1.40784 10 8 ack 40 ------- 5 10.4 9.0 14 49
r 1.40784 9 8 tcp 1040 ------- 5 9.0 10.4 17 47
+ 1.40784 8 10 tcp 1040 ------- 5 9.0 10.4 17 47
- 1.40784 8 10 tcp 1040 ------- 5 9.0 10.4 17 47
r 1.409504 9 8 tcp 1040 ------- 5 9.0 10.4 18 48
+ 1.409504 8 10 tcp 1040 ------- 5 9.0 10.4 18 48
r 1.418112 2 4 tcp 1040 ------- 1 1.0 10.0 2 36
+ 1.418112 4 6 tcp 1040 ------- 1 1.0 10.0 2 36
- 1.418112 4 6 tcp 1040 ------- 1 1.0 10.0 2 36
r 1.42448 8 10 tcp 1040 ------- 5 9.0 10.4 15 43
- 1.42448 8 10 tcp 1040 ------- 5 9.0 10.4 18 48
r 1.432128 10 8 ack 40 ------- 4 10.3 7.0 4 45
+ 1.432128 8 6 ack 40 ------- 4 10.3 7.0 4 45
- 1.432128 8 6 ack 40 ------- 4 10.3 7.0 4 45
r 1.434112 6 4 ack 40 ------- 3 10.2 5.0 2 34
+ 1.434112 4 5 ack 40 ------- 3 10.2 5.0 2 34
- 1.434112 4 5 ack 40 ------- 3 10.2 5.0 2 34
r 1.44112 8 10 tcp 1040 ------- 5 9.0 10.4 16 44
+ 1.44112 10 8 ack 40 ------- 5 10.4 9.0 16 50
- 1.44112 10 8 ack 40 ------- 5 10.4 9.0 16 50
r 1.448768 10 8 ack 40 ------- 5 10.4 9.0 12 46
+ 1.448768 8 9 ack 40 ------- 5 10.4 9.0 12 46
- 1.448768 8 9 ack 40 ------- 5 10.4 9.0 12 46
r 1.454176 4 5 ack 40 ------- 3 10.2 5.0 2 34
+ 1.454176 5 4 tcp 1040 ------- 3 5.0 10.2 3 51
- 1.454176 5 4 tcp 1040 ------- 3 5.0 10.2 3 51
+ 1.454176 5 4 tcp 1040 ------- 3 5.0 10.2 4 52
+ 1.454176 5 4 tcp 1040 ------- 3 5.0 10.2 5 53
- 1.45584 5 4 tcp 1040 ------- 3 5.0 10.2 4 52
- 1.457504 5 4 tcp 1040 ------- 3 5.0 10.2 5 53
r 1.45776 8 10 tcp 1040 ------- 2 3.0 10.1 1 26
+ 1.464768 10 8 ack 40 ------- 4 10.3 7.0 5 54
- 1.464768 10 8 ack 40 ------- 4 10.3 7.0 5 54
r 1.468832 8 9 ack 40 ------- 5 10.4 9.0 12 46
+ 1.468832 9 8 tcp 1040 ------- 5 9.0 10.4 19 55
- 1.468832 9 8 tcp 1040 ------- 5 9.0 10.4 19 55
+ 1.468832 9 8 tcp 1040 ------- 5 9.0 10.4 20 56
+ 1.468832 9 8 tcp 1040 ------- 5 9.0 10.4 21 57
- 1.470496 9 8 tcp 1040 ------- 5 9.0 10.4 20 56
- 1.47216 9 8 tcp 1040 ------- 5 9.0 10.4 21 57
r 1.4744 8 10 tcp 1040 ------- 2 3.0 10.1 2 27
+ 1.4744 10 8 ack 40 ------- 2 10.1 3.0 2 58
- 1.4744 10 8 ack 40 ------- 2 10.1 3.0 2 58
r 1.47584 5 4 tcp 1040 ------- 3 5.0 10.2 3 51
+ 1.47584 4 6 tcp 1040 ------- 3 5.0 10.2 3 51
- 1.47584 4 6 tcp 1040 ------- 3 5.0 10.2 3 51
r 1.477504 5 4 tcp 1040 ------- 3 5.0 10.2 4 52
+ 1.477504 4 6 tcp 1040 ------- 3 5.0 10.2 4 52
r 1.479168 5 4 tcp 1040 ------- 3 5.0 10.2 5 53
+ 1.479168 4 6 tcp 1040 ------- 3 5.0 10.2 5 53
r 1.490496 9 8 tcp 1040 ------- 5 9.0 10.4 19 55
+ 1.490496 8 10 tcp 1040 ------- 5 9.0 10.4 19 55
- 1.490496 8 10 tcp 1040 ------- 5 9.0 10.4 19 55
r 1.49216 9 8 tcp 1040 ------- 5 9.0 10.4 20 56
+ 1.49216 8 10 tcp 1040 ------- 5 9.0 10.4 20 56
- 1.49248 4 6 tcp 1040 ------- 3 5.0 10.2 4 52
r 1.493824 9 8 tcp 1040 ------- 5 9.0 10.4 21 57
+ 1.493824 8 10 tcp 1040 ------- 5 9.0 10.4 21 57
- 1.507136 8 10 tcp 1040 ------- 5 9.0 10.4 20 56
r 1.50848 10 8 ack 40 ------- 5 10.4 9.0 14 49
+ 1.50848 8 9 ack 40 ------- 5 10.4 9.0 14 49
- 1.50848 8 9 ack 40 ------- 5 10.4 9.0 14 49
- 1.50912 4 6 tcp 1040 ------- 3 5.0 10.2 5 53
r 1.518112 4 6 tcp 1040 ------- 1 1.0 10.0 1 35
+ 1.518112 6 8 tcp 1040 ------- 1 1.0 10.0 1 35
- 1.518112 6 8 tcp 1040 ------- 1 1.0 10.0 1 35
- 1.523776 8 10 tcp 1040 ------- 5 9.0 10.4 21 57
r 1.52448 8 10 tcp 1040 ------- 5 9.0 10.4 17 47
r 1.528544 8 9 ack 40 ------- 5 10.4 9.0 14 49
+ 1.528544 9 8 tcp 1040 ------- 5 9.0 10.4 22 59
- 1.528544 9 8 tcp 1040 ------- 5 9.0 10.4 22 59
+ 1.528544 9 8 tcp 1040 ------- 5 9.0 10.4 23 60
+ 1.528544 9 8 tcp 1040 ------- 5 9.0 10.4 24 61
- 1.530208 9 8 tcp 1040 ------- 5 9.0 10.4 23 60
- 1.531872 9 8 tcp 1040 ------- 5 9.0 10.4 24 61
r 1.532768 8 6 ack 40 ------- 4 10.3 7.0 4 45
+ 1.532768 6 7 ack 40 ------- 4 10.3 7.0 4 45
- 1.532768 6 7 ack 40 ------- 4 10.3 7.0 4 45
r 1.534752 4 6 tcp 1040 ------- 1 1.0 10.0 2 36
+ 1.534752 6 8 tcp 1040 ------- 1 1.0 10.0 2 36
- 1.534752 6 8 tcp 1040 ------- 1 1.0 10.0 2 36
r 1.54112 8 10 tcp 1040 ------- 5 9.0 10.4 18 48
+ 1.54112 10 8 ack 40 ------- 5 10.4 9.0 18 62
- 1.54112 10 8 ack 40 ------- 5 10.4 9.0 18 62
r 1.54176 10 8 ack 40 ------- 5 10.4 9.0 16 50
+ 1.54176 8 9 ack 40 ------- 5 10.4 9.0 16 50
- 1.54176 8 9 ack 40 ------- 5 10.4 9.0 16 50
r 1.550208 9 8 tcp 1040 ------- 5 9.0 10.4 22 59
+ 1.550208 8 10 tcp 1040 ------- 5 9.0 10.4 22 59
- 1.550208 8 10 tcp 1040 ------- 5 9.0 10.4 22 59
r 1.551872 9 8 tcp 1040 ------- 5 9.0 10.4 23 60
+ 1.551872 8 10 tcp 1040 ------- 5 9.0 10.4 23 60
r 1.552832 6 7 ack 40 ------- 4 10.3 7.0 4 45
+ 1.552832 7 6 tcp 1040 ------- 4 7.0 10.3 6 63
- 1.552832 7 6 tcp 1040 ------- 4 7.0 10.3 6 63
+ 1.552832 7 6 tcp 1040 ------- 4 7.0 10.3 7 64
+ 1.552832 7 6 tcp 1040 ------- 4 7.0 10.3 8 65
r 1.553536 9 8 tcp 1040 ------- 5 9.0 10.4 24 61
+ 1.553536 8 10 tcp 1040 ------- 5 9.0 10.4 24 61
- 1.554496 7 6 tcp 1040 ------- 4 7.0 10.3 7 64
- 1.55616 7 6 tcp 1040 ------- 4 7.0 10.3 8 65
r 1.561824 8 9 ack 40 ------- 5 10.4 9.0 16 50
+ 1.561824 9 8 tcp 1040 ------- 5 9.0 10.4 25 66
- 1.561824 9 8 tcp 1040 ------- 5 9.0 10.4 25 66
+ 1.561824 9 8 tcp 1040 ------- 5 9.0 10.4 26 67
+ 1.561824 9 8 tcp 1040 ------- 5 9.0 10.4 27 68
- 1.563488 9 8 tcp 1040 ------- 5 9.0 10.4 26 67
- 1.565152 9 8 tcp 1040 ------- 5 9.0 10.4 27 68
r 1.565408 10 8 ack 40 ------- 4 10.3 7.0 5 54
+ 1.565408 8 6 ack 40 ------- 4 10.3 7.0 5 54
- 1.565408 8 6 ack 40 ------- 4 10.3 7.0 5 54
- 1.566848 8 10 tcp 1040 ------- 5 9.0 10.4 23 60
r 1.574496 7 6 tcp 1040 ------- 4 7.0 10.3 6 63
+ 1.574496 6 8 tcp 1040 ------- 4 7.0 10.3 6 63
- 1.574496 6 8 tcp 1040 ------- 4 7.0 10.3 6 63
r 1.57504 10 8 ack 40 ------- 2 10.1 3.0 2 58
+ 1.57504 8 6 ack 40 ------- 2 10.1 3.0 2 58
- 1.57504 8 6 ack 40 ------- 2 10.1 3.0 2 58
r 1.57616 7 6 tcp 1040 ------- 4 7.0 10.3 7 64
+ 1.57616 6 8 tcp 1040 ------- 4 7.0 10.3 7 64
r 1.577824 7 6 tcp 1040 ------- 4 7.0 10.3 8 65
+ 1.577824 6 8 tcp 1040 ------- 4 7.0 10.3 8 65
r 1.583488 9 8 tcp 1040 ------- 5 9.0 10.4 25 66
+ 1.583488 8 10 tcp 1040 ------- 5 9.0 10.4 25 66
- 1.583488 8 10 tcp 1040 ------- 5 9.0 10.4 24 61
r 1.585152 9 8 tcp 1040 ------- 5 9.0 10.4 26 67
+ 1.585152 8 10 tcp 1040 ------- 5 9.0 10.4 26 67
r 1.586816 9 8 tcp 1040 ------- 5 9.0 10.4 27 68
+ 1.586816 8 10 tcp 1040 ------- 5 9.0 10.4 27 68
- 1.591136 6 8 tcp 1040 ------- 4 7.0 10.3 7 64
r 1.59248 4 6 tcp 1040 ------- 3 5.0 10.2 3 51
+ 1.59248 6 8 tcp 1040 ------- 3 5.0 10.2 3 51
- 1.600128 8 10 tcp 1040 ------- 5 9.0 10.4 25 66
r 1.607136 8 10 tcp 1040 ------- 5 9.0 10.4 19 55
- 1.607776 6 8 tcp 1040 ------- 4 7.0 10.3 8 65
r 1.60912 4 6 tcp 1040 ------- 3 5.0 10.2 4 52
+ 1.60912 6 8 tcp 1040 ------- 3 5.0 10.2 4 52
- 1.616768 8 10 tcp 1040 ------- 5 9.0 10.4 26 67
r 1.623776 8 10 tcp 1040 ------- 5 9.0 10.4 20 56
+ 1.623776 10 8 ack 40 ------- 5 10.4 9.0 20 69
- 1.623776 10 8 ack 40 ------- 5 10.4 9.0 20 69
- 1.624416 6 8 tcp 1040 ------- 3 5.0 10.2 3 51
r 1.62576 4 6 tcp 1040 ------- 3 5.0 10.2 5 53
+ 1.62576 6 8 tcp 1040 ------- 3 5.0 10.2 5 53
- 1.633408 8 10 tcp 1040 ------- 5 9.0 10.4 27 68
r 1.634752 6 8 tcp 1040 ------- 1 1.0 10.0 1 35
+ 1.634752 8 10 tcp 1040 ------- 1 1.0 10.0 1 35
r 1.640416 8 10 tcp 1040 ------- 5 9.0 10.4 21 57
- 1.641056 6 8 tcp 1040 ------- 3 5.0 10.2 4 52
r 1.64176 10 8 ack 40 ------- 5 10.4 9.0 18 62
+ 1.64176 8 9 ack 40 ------- 5 10.4 9.0 18 62
- 1.64176 8 9 ack 40 ------- 5 10.4 9.0 18 62
- 1.650048 8 10 tcp 1040 ------- 1 1.0 10.0 1 35
r 1.651392 6 8 tcp 1040 ------- 1 1.0 10.0 2 36
+ 1.651392 8 10 tcp 1040 ------- 1 1.0 10.0 2 36
- 1.657696 6 8 tcp 1040 ------- 3 5.0 10.2 5 53
r 1.661824 8 9 ack 40 ------- 5 10.4 9.0 18 62
+ 1.661824 9 8 tcp 1040 ------- 5 9.0 10.4 28 70
- 1.661824 9 8 tcp 1040 ------- 5 9.0 10.4 28 70
+ 1.661824 9 8 tcp 1040 ------- 5 9.0 10.4 29 71
+ 1.661824 9 8 tcp 1040 ------- 5 9.0 10.4 30 72
- 1.663488 9 8 tcp 1040 ------- 5 9.0 10.4 29 71
- 1.665152 9 8 tcp 1040 ------- 5 9.0 10.4 30 72
r 1.666048 8 6 ack 40 ------- 4 10.3 7.0 5 54
+ 1.666048 6 7 ack 40 ------- 4 10.3 7.0 5 54
- 1.666048 6 7 ack 40 ------- 4 10.3 7.0 5 54
- 1.666688 8 10 tcp 1040 ------- 1 1.0 10.0 2 36
r 1.666848 8 10 tcp 1040 ------- 5 9.0 10.4 22 59
+ 1.666848 10 8 ack 40 ------- 5 10.4 9.0 22 73
- 1.666848 10 8 ack 40 ------- 5 10.4 9.0 22 73
r 1.67568 8 6 ack 40 ------- 2 10.1 3.0 2 58
+ 1.67568 6 4 ack 40 ------- 2 10.1 3.0 2 58
- 1.67568 6 4 ack 40 ------- 2 10.1 3.0 2 58
r 1.683488 8 10 tcp 1040 ------- 5 9.0 10.4 23 60
r 1.683488 9 8 tcp 1040 ------- 5 9.0 10.4 28 70
+ 1.683488 8 10 tcp 1040 ------- 5 9.0 10.4 28 70
- 1.683488 8 10 tcp 1040 ------- 5 9.0 10.4 28 70
r 1.685152 9 8 tcp 1040 ------- 5 9.0 10.4 29 71
+ 1.685152 8 10 tcp 1040 ------- 5 9.0 10.4 29 71
r 1.686112 6 7 ack 40 ------- 4 10.3 7.0 5 54
+ 1.686112 7 6 tcp 1040 ------- 4 7.0 10.3 9 74
- 1.686112 7 6 tcp 1040 ------- 4 7.0 10.3 9 74
+ 1.686112 7 6 tcp 1040 ------- 4 7.0 10.3 10 75
r 1.686816 9 8 tcp 1040 ------- 5 9.0 10.4 30 72
+ 1.686816 8 10 tcp 1040 ------- 5 9.0 10.4 30 72
- 1.687776 7 6 tcp 1040 ------- 4 7.0 10.3 10 75
r 1.691136 6 8 tcp 1040 ------- 4 7.0 10.3 6 63
+ 1.691136 8 10 tcp 1040 ------- 4 7.0 10.3 6 63
r 1.700128 8 10 tcp 1040 ------- 5 9.0 10.4 24 61
+ 1.700128 10 8 ack 40 ------- 5 10.4 9.0 24 76
- 1.700128 10 8 ack 40 ------- 5 10.4 9.0 24 76
- 1.700128 8 10 tcp 1040 ------- 5 9.0 10.4 29 71
r 1.707776 6 8 tcp 1040 ------- 4 7.0 10.3 7 64
+ 1.707776 8 10 tcp 1040 ------- 4 7.0 10.3 7 64
r 1.707776 7 6 tcp 1040 ------- 4 7.0 10.3 9 74
+ 1.707776 6 8 tcp 1040 ------- 4 7.0 10.3 9 74
- 1.707776 6 8 tcp 1040 ------- 4 7.0 10.3 9 74
r 1.70944 7 6 tcp 1040 ------- 4 7.0 10.3 10 75
+ 1.70944 6 8 tcp 1040 ------- 4 7.0 10.3 10 75
r 1.716768 8 10 tcp 1040 ------- 5 9.0 10.4 25 66
- 1.716768 8 10 tcp 1040 ------- 4 7.0 10.3 6 63
r 1.724416 6 8 tcp 1040 ------- 4 7.0 10.3 8 65
+ 1.724416 8 10 tcp 1040 ------- 4 7.0 10.3 8 65
r 1.724416 10 8 ack 40 ------- 5 10.4 9.0 20 69
+ 1.724416 8 9 ack 40 ------- 5 10.4 9.0 20 69
- 1.724416 8 9 ack 40 ------- 5 10.4 9.0 20 69
- 1.724416 6 8 tcp 1040 ------- 4 7.0 10.3 10 75
r 1.733408 8 10 tcp 1040 ------- 5 9.0 10.4 26 67
+ 1.733408 10 8 ack 40 ------- 5 10.4 9.0 26 77
- 1.733408 10 8 ack 40 ------- 5 10.4 9.0 26 77
- 1.733408 8 10 tcp 1040 ------- 5 9.0 10.4 30 72
r 1.741056 6 8 tcp 1040 ------- 3 5.0 10.2 3 51
+ 1.741056 8 10 tcp 1040 ------- 3 5.0 10.2 3 51
r 1.74448 8 9 ack 40 ------- 5 10.4 9.0 20 69
+ 1.74448 9 8 tcp 1040 ------- 5 9.0 10.4 31 78
- 1.74448 9 8 tcp 1040 ------- 5 9.0 10.4 31 78
+ 1.74448 9 8 tcp 1040 ------- 5 9.0 10.4 32 79
+ 1.74448 9 8 tcp 1040 ------- 5 9.0 10.4 33 80
- 1.746144 9 8 tcp 1040 ------- 5 9.0 10.4 32 79
- 1.747808 9 8 tcp 1040 ------- 5 9.0 10.4 33 80
r 1.750048 8 10 tcp 1040 ------- 5 9.0 10.4 27 68
- 1.750048 8 10 tcp 1040 ------- 4 7.0 10.3 7 64
r 1.757696 6 8 tcp 1040 ------- 3 5.0 10.2 4 52
+ 1.757696 8 10 tcp 1040 ------- 3 5.0 10.2 4 52
r 1.766144 9 8 tcp 1040 ------- 5 9.0 10.4 31 78
+ 1.766144 8 10 tcp 1040 ------- 5 9.0 10.4 31 78
r 1.766688 8 10 tcp 1040 ------- 1 1.0 10.0 1 35
- 1.766688 8 10 tcp 1040 ------- 4 7.0 10.3 8 65
r 1.767488 10 8 ack 40 ------- 5 10.4 9.0 22 73
+ 1.767488 8 9 ack 40 ------- 5 10.4 9.0 22 73
- 1.767488 8 9 ack 40 ------- 5 10.4 9.0 22 73
r 1.767808 9 8 tcp 1040 ------- 5 9.0 10.4 32 79
+ 1.767808 8 10 tcp 1040 ------- 5 9.0 10.4 32 79
r 1.769472 9 8 tcp 1040 ------- 5 9.0 10.4 33 80
+ 1.769472 8 10 tcp 1040 ------- 5 9.0 10.4 33 80
r 1.774336 6 8 tcp 1040 ------- 3 5.0 10.2 5 53
+ 1.774336 8 10 tcp 1040 ------- 3 5.0 10.2 5 53
r 1.77632 6 4 ack 40 ------- 2 10.1 3.0 2 58
+ 1.77632 4 2 ack 40 ------- 2 10.1 3.0 2 58
- 1.77632 4 2 ack 40 ------- 2 10.1 3.0 2 58